 +-------------------------------------------------+
 |                                                 |
 |      CCC   AA    SSS  TTTTT  EEEEE  PPPP        |
 |     C     A  A  S       T    E      P   P       |
 |     C     AAAA   SS     T    EEE    PPPP        |
 |     C     A  A     S    T    E      P           |
 |      CCC  A  A  SSS     T    EEEEE  P           |
 |                                                 |
 +-------------------------------------------------+
 |                                                 |
 | Welcome to Academic Release CASTEP version 19.11|          
 | Ab Initio Total Energy Program                  |
 |                                                 |
 | Authors:                                        |
 | M. Segall, M. Probert, C. Pickard, P. Hasnip,   |
 | S. Clark, K. Refson, J. R. Yates, M. Payne      |
 |                                                 |
 | Contributors:                                   |
 | P. Lindan, P. Haynes, J. White, V. Milman,      |
 | N. Govind, M. Gibson, P. Tulip, V. Cocula,      |
 | B. Montanari, D. Quigley, M. Glover,            |
 | L. Bernasconi, A. Perlov, M. Plummer,           |
 | E. McNellis, J. Meyer, J. Gale, D. Jochym       |
 | J. Aarons, B. Walker, R. Gillen, D. Jones       |
 | T. Green, I. J. Bush, C. J. Armstrong,          |
 | E. J. Higgins, E. L. Brown, M. S. McFly,        |
 | J. Wilkins, B-C. Shih, P. J. P. Byrne           |
 |                                                 |
 | Copyright (c) 2000 - 2018                       |
 |                                                 |
 |     Distributed under the terms of an           |
 |     Agreement between the United Kingdom        |
 |     Car-Parrinello (UKCP) Consortium,           |
 |     Daresbury Laboratory and Accelrys, Inc.     |
 |                                                 |
 | Please cite                                     |
 |                                                 |
 |     "First principles methods using CASTEP"     |
 |                                                 |
 |         Zeitschrift fuer Kristallographie       |
 |           220(5-6) pp. 567-570 (2005)           |
 |                                                 |
 | S. J. Clark, M. D. Segall, C. J. Pickard,       |
 | P. J. Hasnip, M. J. Probert, K. Refson,         |
 | M. C. Payne                                     |
 |                                                 |
 |       in all publications arising from          |
 |              your use of CASTEP                 |
 |                                                 |
 +-------------------------------------------------+
 |                                                 |
 |              http://www.castep.org              |
 |                                                 |
 +-------------------------------------------------+
 
 
 
 Compiled for linux_x86_64_ifort17 on Tue, 03 Mar 2020 15:46:00 +0000
 from code version 
 e1fe0d666396+ Castep191_branch Thu, 24 Oct 2019 13:54:03 +0100
 Compiler: Intel Fortran 17.0.4.196; Optimisation: fast
 MATHLIBS: Intel MKL(11.3.4) (LAPACK version 3.6.0)
 FFT Lib : mkl
 Fundamental constants values: CODATA 2014
 
 Run started: Fri, 04 Feb 2022 11:36:38 +0000
 
 Atomic calculation performed for Ge:1K: 1s1 2s2 2p6 3s2 3p6 3d10 4s2 4p2
 
 Converged in 81 iterations to an ae energy of -45958.577 eV
 
   ============================================================                
   | Pseudopotential Report - Date of generation  4-02-2022   |                
   ------------------------------------------------------------                
   | Element: Ge Ionic charge: 23.00 Level of theory: PBE     |                
   | Atomic Solver: Koelling-Harmon                           |                
   |                                                          |                
   |               Reference Electronic Structure             |                
   |         Orbital         Occupation         Energy        |                
   |            3s              2.000           -7.194        |                
   |            3p              6.000           -5.260        |                
   |            3d             10.000           -1.873        |                
   |            4s              2.000           -0.846        |                
   |            4p              2.000           -0.492        |                
   |                                                          |                
   |                 Pseudopotential Definition               |                
   |        Beta     l      e      Rc     scheme   norm       |                
   |          1      0   -7.194   1.506     qc      0         |                
   |          2      0   -0.846   1.506     qc      0         |                
   |          3      0    0.250   1.506     qc      0         |                
   |          4      1   -5.260   1.506     qc      0         |                
   |          5      1   -0.492   1.506     qc      0         |                
   |          6      1    0.250   1.506     qc      0         |                
   |          7      2   -1.873   1.506     qc      0         |                
   |          8      2    0.250   1.506     qc      0         |                
   |         loc     3    0.000   1.506     pn      0         |                
   |                                                          |                
   | Augmentation charge Rinner = 1.052                       |                
   | Partial core correction Rc = 1.052                       |                
   ------------------------------------------------------------                
   | "3|1.5|13|15|17|30U:31U:32:40:41(qc=6){1s1}"             |                
   ------------------------------------------------------------                
   |      Author: Chris J. Pickard, Cambridge University      |                
   ============================================================                
 
 Pseudo atomic calculation performed for Na 2s2 2p6 3s1
 
 Converged in 21 iterations to a total energy of -1304.9826 eV
 
 Pseudo atomic calculation performed for Ge 3s2 3p6 3d10 4s2 4p2
 
 Converged in 27 iterations to a total energy of -8131.2255 eV
 
 Pseudo atomic calculation performed for Ge:1K 3s2 3p6 3d10 4s2 4p2
 
 Converged in 21 iterations to a total energy of -9136.4247 eV
 Calculation parallelised over 504 processes.
 Data is distributed by G-vector(63-way) and k-point(8-way)

 ************************************ Title ************************************
 

 ***************************** General Parameters ******************************
  
 output verbosity                               : normal  (1)
 write checkpoint data to                       : atom-sc.check
 type of calculation                            : Electronic Spectroscopy
 stress calculation                             : off
 density difference calculation                 : off
 electron localisation func (ELF) calculation   : off
 Hirshfeld analysis                             : off
 unlimited duration calculation
 timing information                             : on
 memory usage estimate                          : on
 write extra output files                       : on
 write final potential to formatted file        : off
 write final density to formatted file          : off
 write BibTeX reference list                    : on
 write OTFG pseudopotential files               : on
 write electrostatic potential file             : on
 write bands file                               : on
 checkpoint writing                             : both castep_bin and check files
  
 output         length unit                     : A
 output           mass unit                     : amu
 output           time unit                     : ps
 output         charge unit                     : e
 output           spin unit                     : hbar/2
 output         energy unit                     : eV
 output          force unit                     : eV/A
 output       velocity unit                     : A/ps
 output       pressure unit                     : GPa
 output     inv_length unit                     : 1/A
 output      frequency unit                     : cm-1
 output force constant unit                     : eV/A**2
 output         volume unit                     : A**3
 output   IR intensity unit                     : (D/A)**2/amu
 output         dipole unit                     : D
 output         efield unit                     : eV/A/e
 output        entropy unit                     : J/mol/K
  
 wavefunctions paging                           : none
 random number generator seed                   : randomised (113638349)
 data distribution                              : optimal for this architecture
 optimization strategy                          : balance speed and memory

 *********************** Exchange-Correlation Parameters ***********************
  
 using functional                               : Perdew Burke Ernzerhof
 relativistic treatment                         : Koelling-Harmon
 DFT+D: Semi-empirical dispersion correction    : off

 ************************* Pseudopotential Parameters **************************
  
 pseudopotential representation                 : reciprocal space
 <beta|phi> representation                      : reciprocal space
 spin-orbit coupling                            : off

 **************************** Basis Set Parameters *****************************
  
 plane wave basis set cut-off                   :  1000.0000   eV
 size of standard grid                          :     2.0000
 size of   fine   grid                          :     4.0000
 size of   fine   gmax                          :    64.8035   1/A
 finite basis set correction                    : none

 **************************** Electronic Parameters ****************************
  
 number of  electrons                           :  464.0    
 net charge of system                           : +1.000    
 treating system as non-spin-polarized
 number of bands                                :        432

 ********************* Electronic Minimization Parameters **********************
  
 Method: Treating system as metallic with density mixing treatment of electrons,
         and number of  SD  steps               :          1
         and number of  CG  steps               :          4
  
 total energy / atom convergence tol.           : 0.1000E-04   eV
 eigen-energy convergence tolerance             : 0.9259E-06   eV
 max force / atom convergence tol.              : ignored
 convergence tolerance window                   :          3   cycles
 max. number of SCF cycles                      :        150
 number of fixed-spin iterations                :         10
 smearing scheme                                : Gaussian
 smearing width                                 : 0.2000       eV
 Fermi energy convergence tolerance             : 0.2721E-13   eV
 periodic dipole correction                     : NONE

 ************************** Density Mixing Parameters **************************
  
 density-mixing scheme                          : Pulay
 max. length of mixing history                  :         20
 charge density mixing amplitude                : 0.4000    
 cut-off energy for mixing                      :  1000.       eV

 *********************** Population Analysis Parameters ************************
  
 Population analysis with cutoff                :  3.000       A
 Population analysis output                     : summary and pdos components

 ********************* Electronic Spectroscopy Parameters **********************
  
 electronic spectroscopy with theory level      : DFT       
 spectroscopy calculation                       : core loss (EELS, XANES, etc)
 max. number of iterations                      :         60
 max. steps per iteration                       :          5
 number of bands / k-point                      :       2232
 band convergence tolerance                     : 0.1000E-05   eV
 write orbitals file                            : off

 *******************************************************************************
  
 
                           -------------------------------
                                      Unit Cell
                           -------------------------------
        Real Lattice(A)                      Reciprocal Lattice(1/A)
    10.3209310     0.0000000     0.0000000        0.608780866  -0.303954326   0.308811928
     5.1601750    10.3341140    -0.0010270        0.000000000   0.607942869  -0.617719724
     0.0005150    10.4274680    10.2624290        0.000000000   0.000060839   0.612189464
 
                       Lattice parameters(A)       Cell Angles
                    a =     10.320931          alpha =   50.386662
                    b =     11.550815          beta  =   89.997983
                    c =     14.630432          gamma =   63.465482
 
                       Current cell volume =          1094.677370       A**3
                                   density =             1.202686   AMU/A**3
                                           =             1.997106     g/cm^3
 
                           -------------------------------
                                     Cell Contents
                           -------------------------------
                         Total number of ions in cell =   40
                      Total number of species in cell =    3
                        Max number of any one species =   32
 
            xxxxxxxxxxxxxxxxxxxxxxxxxxxxxxxxxxxxxxxxxxxxxxxxxxxxxxxxxxxx
            x  Element    Atom        Fractional coordinates of atoms  x
            x            Number           u          v          w      x
            x----------------------------------------------------------x
            x  Na           1         0.310287   0.379426   0.418129   x 
            x  Na           2         0.189713   0.120574   0.081871   x 
            x  Na           3         0.110227   0.279546   0.300363   x 
            x  Na           4         0.389773   0.220454   0.199636   x 
            x  Na           5         0.310287   0.379426   0.918129   x 
            x  Na           6         0.189713   0.120574   0.581871   x 
            x  Na           7         0.110227   0.279546   0.800363   x 
            x  Na           8         0.389773   0.220454   0.699637   x 
            x  Na           9         0.310287   0.879426   0.418129   x 
            x  Na          10         0.189713   0.620574   0.081871   x 
            x  Na          11         0.110227   0.779546   0.300363   x 
            x  Na          12         0.389773   0.720454   0.199637   x 
            x  Na          13         0.310287   0.879426   0.918129   x 
            x  Na          14         0.189713   0.620574   0.581871   x 
            x  Na          15         0.110227   0.779546   0.800363   x 
            x  Na          16         0.389773   0.720454   0.699636   x 
            x  Na          17         0.810287   0.379426   0.418129   x 
            x  Na          18         0.689713   0.120574   0.081871   x 
            x  Na          19         0.610227   0.279546   0.300363   x 
            x  Na          20         0.889773   0.220454   0.199636   x 
            x  Na          21         0.810287   0.379426   0.918129   x 
            x  Na          22         0.689713   0.120574   0.581871   x 
            x  Na          23         0.610227   0.279546   0.800363   x 
            x  Na          24         0.889773   0.220454   0.699637   x 
            x  Na          25         0.810287   0.879426   0.418129   x 
            x  Na          26         0.689713   0.620574   0.081871   x 
            x  Na          27         0.610227   0.779546   0.300363   x 
            x  Na          28         0.889773   0.720454   0.199637   x 
            x  Na          29         0.810287   0.879426   0.918129   x 
            x  Na          30         0.689713   0.620574   0.581871   x 
            x  Na          31         0.610227   0.779546   0.800363   x 
            x  Na          32         0.889773   0.720454   0.699636   x 
            x  Ge           1         0.000000   0.000000   0.000000   x 
            x  Ge           2        -0.000000   0.000000   0.500000   x 
            x  Ge           3        -0.000000   0.500000  -0.000000   x 
            x  Ge           4         0.000000   0.500000   0.500000   x 
            x  Ge           5         0.500000   0.000000   0.000000   x 
            x  Ge           6         0.500000   0.000000   0.500000   x 
            x  Ge           7         0.500000   0.500000  -0.000000   x 
            x  Ge:1K        1         0.500000   0.500000   0.500000   x 
            xxxxxxxxxxxxxxxxxxxxxxxxxxxxxxxxxxxxxxxxxxxxxxxxxxxxxxxxxxxx
 
 
                         No user defined ionic velocities
 
                           -------------------------------
                                   Details of Species
                           -------------------------------
 
                               Mass of species in AMU
                                    Na   22.9897700
                                    Ge   72.6100000
                                    Ge:1K   72.6100000
 
                          Electric Quadrupole Moment (Barn)
                                    Na    0.1040000 Isotope 23
                                    Ge   -0.1730000 Isotope 73
                                    Ge:1K   -0.1730000 Isotope 73
 
                          Files used for pseudopotentials:
                                    Na Na_HARD_PBE_OTF.usp
                                    Ge Ge_HARD_PBE_OTF.usp
                                    Ge:1K 3|1.5|13|15|17|30U:31U:32:40:41(qc=6){1s1}
 
                           -------------------------------
                              k-Points For BZ Sampling
                           -------------------------------
                       MP grid size for SCF calculation is  4  5  4
                            with an offset of   0.000  0.000  0.000
                       Number of kpoints used =            40
 
                           -------------------------------
                               Symmetry and Constraints
                           -------------------------------
 
                      Maximum deviation from symmetry =  0.00000         ANG
 
                      Number of symmetry operations   =           1
                      Number of ionic constraints     =           3
                      Point group of crystal =     1: C1, 1, 1
                      Space group of crystal =     2: P-1, -P 1
 
             Set iprint > 1 for details on symmetry rotations/translations
 
                         Centre of mass is constrained
             Set iprint > 1 for details of linear ionic constraints
 
                         Number of cell constraints= 0
                         Cell constraints are:  1 2 3 4 5 6
 
                         External pressure/stress (GPa)
                          0.00000   0.00000   0.00000
                                    0.00000   0.00000
                                              0.00000
  
+---------------- MEMORY AND SCRATCH DISK ESTIMATES PER PROCESS --------------+
|                                                     Memory          Disk    |
| Baseline code, static data and system overhead      815.0 MB         0.0 MB |
| BLAS internal memory storage                          0.0 MB         0.0 MB |
| Model and support data                              154.4 MB      1111.4 MB |
| Electronic energy minimisation requirements         124.7 MB         0.0 MB |
| Force calculation requirements                       40.0 MB         0.0 MB |
|                                               ----------------------------- |
| Approx. total storage required per process         1094.1 MB      1111.4 MB |
|                                                                             |
| Requirements will fluctuate during execution and may exceed these estimates |
+-----------------------------------------------------------------------------+
Calculating total energy with cut-off of 1000.000 eV.
------------------------------------------------------------------------ <-- SCF
SCF loop      Energy           Fermi           Energy gain       Timer   <-- SCF
                               energy          per atom          (sec)   <-- SCF
------------------------------------------------------------------------ <-- SCF
Initial  -1.17303052E+005  0.00000000E+000                        19.58  <-- SCF
      1  -1.05602855E+005  6.81559044E+000  -2.92504926E+002     132.58  <-- SCF
      2  -1.07840299E+005  2.55669911E+000   5.59361023E+001     200.15  <-- SCF
      3  -1.07932147E+005  2.25819656E+000   2.29620907E+000     271.04  <-- SCF
      4  -1.07926984E+005  2.43254030E+000  -1.29094696E-001     368.88  <-- SCF
      5  -1.07922956E+005  2.56631116E+000  -1.00684055E-001     459.41  <-- SCF
      6  -1.07922461E+005  2.56858390E+000  -1.23872261E-002     553.00  <-- SCF
      7  -1.07922264E+005  2.54908630E+000  -4.93049356E-003     639.40  <-- SCF
      8  -1.07922233E+005  2.53653437E+000  -7.70260049E-004     719.53  <-- SCF
      9  -1.07922233E+005  2.53276212E+000  -7.07758933E-006     791.78  <-- SCF
     10  -1.07922232E+005  2.53161183E+000  -1.46919300E-005     862.99  <-- SCF
     11  -1.07922232E+005  2.53132036E+000  -1.24786582E-006     920.01  <-- SCF
     12  -1.07922232E+005  2.53149484E+000   4.40629537E-007     974.99  <-- SCF
------------------------------------------------------------------------ <-- SCF
 
Final energy, E             =  -107922.0276413     eV
Final free energy (E-TS)    =  -107922.2319132     eV
(energies not corrected for finite basis set)
 
NB est. 0K energy (E-0.5TS)      =  -107922.1297773     eV
 

Writing analysis data to atom-sc.castep_bin

Writing model to atom-sc.check
 
+---------------- MEMORY AND SCRATCH DISK ESTIMATES PER PROCESS --------------+
|                                                     Memory          Disk    |
|                                               ----------------------------- |
| Approx. total storage required per process          281.1 MB      1111.4 MB |
|                                                                             |
| Requirements will fluctuate during execution and may exceed these estimates |
+-----------------------------------------------------------------------------+
 
  =====================================================================
  +                                                                   +
  +                 Calculation of Spectral Properties                +
  +                                                                   +
  + Calculation re-parallelised over 504 processes.                   +
  + Data distributed by G-vector(63-way), k-point(8-way), band(1-way) +
  + Data distributed by G-vector(63-way), k-point(8-way)              +
  +                                                                   +
  =====================================================================
  Starting k-point:        1 of        5 on this process      |<-- SPEC
  Starting k-point:        2 of        5 on this process      |<-- SPEC
  Starting k-point:        3 of        5 on this process      |<-- SPEC
  Starting k-point:        4 of        5 on this process      |<-- SPEC
  Starting k-point:        5 of        5 on this process      |<-- SPEC
  Total time to compute matrix elements           4203.20 sec |<-- SPEC
  
  + Calculation re-parallelised over 504 processes.                   +
  + Data distributed by G-vector(63-way), k-point(8-way)              +
 
 ************************** Forces **************************
 *                                                          *
 *               Cartesian components (eV/A)                *
 * -------------------------------------------------------- *
 *                         x            y            z      *
 *                                                          *
 * Na              1      0.00406      0.08136      0.05117 *
 * Na              2      0.00000      0.02201     -0.13366 *
 * Na              3      0.00022      0.00000      0.00711 *
 * Na              4      0.01376      0.04986      0.00675 *
 * Na              5     -0.01410     -0.00379      0.05349 *
 * Na              6      0.00013      0.03367     -0.02399 *
 * Na              7     -0.00032     -0.01850     -0.03957 *
 * Na              8      0.00974      0.04671     -0.07732 *
 * Na              9      0.00046     -0.08145      0.04748 *
 * Na             10     -0.01525      0.00373     -0.05362 *
 * Na             11      0.00907     -0.04711      0.07739 *
 * Na             12      0.00058      0.03916      0.08382 *
 * Na             13      0.00029      0.01304      0.00337 *
 * Na             14      0.00434     -0.08182     -0.05102 *
 * Na             15      0.01420     -0.05015     -0.00669 *
 * Na             16     -0.00027      0.12424      0.02417 *
 * Na             17     -0.00408      0.08189      0.05099 *
 * Na             18     -0.00039     -0.01299     -0.00319 *
 * Na             19      0.00037     -0.12443     -0.02413 *
 * Na             20     -0.01414      0.05058      0.00689 *
 * Na             21      0.01521     -0.00374      0.05361 *
 * Na             22     -0.00044      0.08128     -0.04762 *
 * Na             23     -0.00076     -0.03900     -0.08362 *
 * Na             24     -0.00902      0.04712     -0.07745 *
 * Na             25     -0.00009     -0.03368      0.02406 *
 * Na             26      0.01418      0.00413     -0.05365 *
 * Na             27     -0.00981     -0.04664      0.07744 *
 * Na             28      0.00025      0.01859      0.03958 *
 * Na             29      0.00002     -0.02208      0.13378 *
 * Na             30     -0.00425     -0.08179     -0.05124 *
 * Na             31     -0.01371     -0.05052     -0.00718 *
 * Na             32     -0.00024      0.00024     -0.00718 *
 * Ge              1      0.00001     -0.00000      0.00001 *
 * Ge              2      0.00001      0.00001     -0.00000 *
 * Ge              3     -0.00002      0.00002      0.00000 *
 * Ge              4     -0.00003      0.00001      0.00001 *
 * Ge              5     -0.00000      0.00000      0.00001 *
 * Ge              6      0.00000      0.00001      0.00000 *
 * Ge              7      0.00001      0.00001     -0.00002 *
 * Ge:1K           1      0.00000      0.00002      0.00000 *
 *                                                          *
 ************************************************************
 
 Pseudo atomic calculation performed for Na 2s2 2p6 3s1
 
 Converged in 21 iterations to a total energy of -1304.9826 eV
 
 Pseudo atomic calculation performed for Ge 3s2 3p6 3d10 4s2 4p2
 
 Converged in 27 iterations to a total energy of -8131.2255 eV
 
 Pseudo atomic calculation performed for Ge:1K 3s2 3p6 3d10 4s2 4p2
 
 Converged in 21 iterations to a total energy of -9136.4247 eV
Charge spilling parameter for spin component 1 = 0.03%
 
            Orbital Populations       
     Ion    Atom   Orbital             Charge
  -------------------------------------------
     Na     1      S                    2.001
     Na     1      Px                   2.001
     Na     1      Py                   2.001
     Na     1      Pz                   2.002
     Na     1      S                    0.378
     Na     1      Px                   0.195
     Na     1      Py                   0.215
     Na     1      Pz                   0.160
     Na     2      S                    2.001
     Na     2      Px                   2.001
     Na     2      Py                   2.001
     Na     2      Pz                   2.002
     Na     2      S                    0.399
     Na     2      Px                   0.187
     Na     2      Py                   0.207
     Na     2      Pz                   0.134
     Na     3      S                    2.001
     Na     3      Px                   2.001
     Na     3      Py                   2.002
     Na     3      Pz                   2.001
     Na     3      S                    0.372
     Na     3      Px                   0.178
     Na     3      Py                   0.142
     Na     3      Pz                   0.203
     Na     4      S                    2.001
     Na     4      Px                   2.001
     Na     4      Py                   2.002
     Na     4      Pz                   2.001
     Na     4      S                    0.380
     Na     4      Px                   0.183
     Na     4      Py                   0.149
     Na     4      Pz                   0.202
     Na     5      S                    2.001
     Na     5      Px                   2.001
     Na     5      Py                   2.001
     Na     5      Pz                   2.002
     Na     5      S                    0.386
     Na     5      Px                   0.184
     Na     5      Py                   0.208
     Na     5      Pz                   0.155
     Na     6      S                    2.001
     Na     6      Px                   2.001
     Na     6      Py                   2.001
     Na     6      Pz                   2.002
     Na     6      S                    0.380
     Na     6      Px                   0.181
     Na     6      Py                   0.212
     Na     6      Pz                   0.158
     Na     7      S                    2.001
     Na     7      Px                   2.001
     Na     7      Py                   2.002
     Na     7      Pz                   2.001
     Na     7      S                    0.373
     Na     7      Px                   0.180
     Na     7      Py                   0.151
     Na     7      Pz                   0.205
     Na     8      S                    2.001
     Na     8      Px                   2.001
     Na     8      Py                   2.002
     Na     8      Pz                   2.001
     Na     8      S                    0.371
     Na     8      Px                   0.196
     Na     8      Py                   0.152
     Na     8      Pz                   0.211
     Na     9      S                    2.001
     Na     9      Px                   2.001
     Na     9      Py                   2.001
     Na     9      Pz                   2.002
     Na     9      S                    0.394
     Na     9      Px                   0.173
     Na     9      Py                   0.258
     Na     9      Pz                   0.173
     Na    10      S                    2.001
     Na    10      Px                   2.001
     Na    10      Py                   2.001
     Na    10      Pz                   2.002
     Na    10      S                    0.386
     Na    10      Px                   0.184
     Na    10      Py                   0.208
     Na    10      Pz                   0.155
     Na    11      S                    2.001
     Na    11      Px                   2.001
     Na    11      Py                   2.002
     Na    11      Pz                   2.001
     Na    11      S                    0.371
     Na    11      Px                   0.196
     Na    11      Py                   0.152
     Na    11      Pz                   0.211
     Na    12      S                    2.001
     Na    12      Px                   2.001
     Na    12      Py                   2.002
     Na    12      Pz                   2.001
     Na    12      S                    0.386
     Na    12      Px                   0.173
     Na    12      Py                   0.166
     Na    12      Pz                   0.250
     Na    13      S                    2.001
     Na    13      Px                   2.001
     Na    13      Py                   2.001
     Na    13      Pz                   2.002
     Na    13      S                    0.379
     Na    13      Px                   0.178
     Na    13      Py                   0.209
     Na    13      Pz                   0.149
     Na    14      S                    2.001
     Na    14      Px                   2.001
     Na    14      Py                   2.001
     Na    14      Pz                   2.002
     Na    14      S                    0.378
     Na    14      Px                   0.195
     Na    14      Py                   0.215
     Na    14      Pz                   0.159
     Na    15      S                    2.001
     Na    15      Px                   2.001
     Na    15      Py                   2.002
     Na    15      Pz                   2.001
     Na    15      S                    0.380
     Na    15      Px                   0.183
     Na    15      Py                   0.149
     Na    15      Pz                   0.202
     Na    16      S                    2.001
     Na    16      Px                   2.001
     Na    16      Py                   2.002
     Na    16      Pz                   2.001
     Na    16      S                    0.393
     Na    16      Px                   0.185
     Na    16      Py                   0.128
     Na    16      Pz                   0.201
     Na    17      S                    2.001
     Na    17      Px                   2.001
     Na    17      Py                   2.001
     Na    17      Pz                   2.002
     Na    17      S                    0.378
     Na    17      Px                   0.195
     Na    17      Py                   0.215
     Na    17      Pz                   0.159
     Na    18      S                    2.001
     Na    18      Px                   2.001
     Na    18      Py                   2.001
     Na    18      Pz                   2.002
     Na    18      S                    0.379
     Na    18      Px                   0.178
     Na    18      Py                   0.209
     Na    18      Pz                   0.149
     Na    19      S                    2.001
     Na    19      Px                   2.001
     Na    19      Py                   2.002
     Na    19      Pz                   2.001
     Na    19      S                    0.393
     Na    19      Px                   0.185
     Na    19      Py                   0.128
     Na    19      Pz                   0.201
     Na    20      S                    2.001
     Na    20      Px                   2.001
     Na    20      Py                   2.002
     Na    20      Pz                   2.001
     Na    20      S                    0.380
     Na    20      Px                   0.183
     Na    20      Py                   0.149
     Na    20      Pz                   0.202
     Na    21      S                    2.001
     Na    21      Px                   2.001
     Na    21      Py                   2.001
     Na    21      Pz                   2.002
     Na    21      S                    0.386
     Na    21      Px                   0.184
     Na    21      Py                   0.208
     Na    21      Pz                   0.155
     Na    22      S                    2.001
     Na    22      Px                   2.001
     Na    22      Py                   2.001
     Na    22      Pz                   2.002
     Na    22      S                    0.394
     Na    22      Px                   0.173
     Na    22      Py                   0.258
     Na    22      Pz                   0.173
     Na    23      S                    2.001
     Na    23      Px                   2.001
     Na    23      Py                   2.002
     Na    23      Pz                   2.001
     Na    23      S                    0.386
     Na    23      Px                   0.173
     Na    23      Py                   0.166
     Na    23      Pz                   0.250
     Na    24      S                    2.001
     Na    24      Px                   2.001
     Na    24      Py                   2.002
     Na    24      Pz                   2.001
     Na    24      S                    0.371
     Na    24      Px                   0.197
     Na    24      Py                   0.152
     Na    24      Pz                   0.211
     Na    25      S                    2.001
     Na    25      Px                   2.001
     Na    25      Py                   2.001
     Na    25      Pz                   2.002
     Na    25      S                    0.380
     Na    25      Px                   0.181
     Na    25      Py                   0.212
     Na    25      Pz                   0.158
     Na    26      S                    2.001
     Na    26      Px                   2.001
     Na    26      Py                   2.001
     Na    26      Pz                   2.002
     Na    26      S                    0.386
     Na    26      Px                   0.184
     Na    26      Py                   0.208
     Na    26      Pz                   0.155
     Na    27      S                    2.001
     Na    27      Px                   2.001
     Na    27      Py                   2.002
     Na    27      Pz                   2.001
     Na    27      S                    0.371
     Na    27      Px                   0.196
     Na    27      Py                   0.152
     Na    27      Pz                   0.211
     Na    28      S                    2.001
     Na    28      Px                   2.001
     Na    28      Py                   2.002
     Na    28      Pz                   2.001
     Na    28      S                    0.373
     Na    28      Px                   0.180
     Na    28      Py                   0.151
     Na    28      Pz                   0.205
     Na    29      S                    2.001
     Na    29      Px                   2.001
     Na    29      Py                   2.001
     Na    29      Pz                   2.002
     Na    29      S                    0.399
     Na    29      Px                   0.187
     Na    29      Py                   0.207
     Na    29      Pz                   0.134
     Na    30      S                    2.001
     Na    30      Px                   2.001
     Na    30      Py                   2.001
     Na    30      Pz                   2.002
     Na    30      S                    0.378
     Na    30      Px                   0.195
     Na    30      Py                   0.215
     Na    30      Pz                   0.160
     Na    31      S                    2.001
     Na    31      Px                   2.001
     Na    31      Py                   2.002
     Na    31      Pz                   2.001
     Na    31      S                    0.380
     Na    31      Px                   0.183
     Na    31      Py                   0.149
     Na    31      Pz                   0.202
     Na    32      S                    2.001
     Na    32      Px                   2.001
     Na    32      Py                   2.002
     Na    32      Pz                   2.001
     Na    32      S                    0.372
     Na    32      Px                   0.178
     Na    32      Py                   0.142
     Na    32      Pz                   0.203
     Ge     1      S                    1.999
     Ge     1      Px                   2.000
     Ge     1      Py                   2.000
     Ge     1      Pz                   2.000
     Ge     1      Dzz                  2.000
     Ge     1      Dzy                  2.000
     Ge     1      Dzx                  2.000
     Ge     1      Dxx-yy               2.000
     Ge     1      Dxy                  2.000
     Ge     1      S                    1.508
     Ge     1      Px                   0.991
     Ge     1      Py                   0.978
     Ge     1      Pz                   0.967
     Ge     1      S                   -0.316
     Ge     2      S                    1.999
     Ge     2      Px                   2.000
     Ge     2      Py                   2.000
     Ge     2      Pz                   2.000
     Ge     2      Dzz                  2.000
     Ge     2      Dzy                  2.000
     Ge     2      Dzx                  2.000
     Ge     2      Dxx-yy               2.000
     Ge     2      Dxy                  2.000
     Ge     2      S                    1.508
     Ge     2      Px                   0.991
     Ge     2      Py                   0.963
     Ge     2      Pz                   0.981
     Ge     2      S                   -0.311
     Ge     3      S                    1.999
     Ge     3      Px                   2.000
     Ge     3      Py                   2.000
     Ge     3      Pz                   2.000
     Ge     3      Dzz                  2.000
     Ge     3      Dzy                  2.000
     Ge     3      Dzx                  2.000
     Ge     3      Dxx-yy               2.000
     Ge     3      Dxy                  2.000
     Ge     3      S                    1.511
     Ge     3      Px                   0.985
     Ge     3      Py                   0.972
     Ge     3      Pz                   0.973
     Ge     3      S                   -0.307
     Ge     4      S                    1.999
     Ge     4      Px                   2.000
     Ge     4      Py                   2.000
     Ge     4      Pz                   2.000
     Ge     4      Dzz                  2.000
     Ge     4      Dzy                  2.000
     Ge     4      Dzx                  2.000
     Ge     4      Dxx-yy               2.000
     Ge     4      Dxy                  2.000
     Ge     4      S                    1.482
     Ge     4      Px                   1.034
     Ge     4      Py                   0.959
     Ge     4      Pz                   0.963
     Ge     4      S                   -0.278
     Ge     5      S                    1.999
     Ge     5      Px                   2.000
     Ge     5      Py                   2.000
     Ge     5      Pz                   2.000
     Ge     5      Dzz                  2.000
     Ge     5      Dzy                  2.000
     Ge     5      Dzx                  2.000
     Ge     5      Dxx-yy               2.000
     Ge     5      Dxy                  2.000
     Ge     5      S                    1.508
     Ge     5      Px                   0.991
     Ge     5      Py                   0.978
     Ge     5      Pz                   0.967
     Ge     5      S                   -0.315
     Ge     6      S                    1.999
     Ge     6      Px                   2.000
     Ge     6      Py                   2.000
     Ge     6      Pz                   2.000
     Ge     6      Dzz                  2.000
     Ge     6      Dzy                  2.000
     Ge     6      Dzx                  2.000
     Ge     6      Dxx-yy               2.000
     Ge     6      Dxy                  2.000
     Ge     6      S                    1.508
     Ge     6      Px                   0.991
     Ge     6      Py                   0.963
     Ge     6      Pz                   0.981
     Ge     6      S                   -0.312
     Ge     7      S                    1.999
     Ge     7      Px                   2.000
     Ge     7      Py                   2.000
     Ge     7      Pz                   2.000
     Ge     7      Dzz                  2.000
     Ge     7      Dzy                  2.000
     Ge     7      Dzx                  2.000
     Ge     7      Dxx-yy               2.000
     Ge     7      Dxy                  2.000
     Ge     7      S                    1.511
     Ge     7      Px                   0.984
     Ge     7      Py                   0.971
     Ge     7      Pz                   0.975
     Ge     7      S                   -0.310
  Ge:1K     1      S                    2.000
  Ge:1K     1      Px                   2.000
  Ge:1K     1      Py                   2.000
  Ge:1K     1      Pz                   2.000
  Ge:1K     1      Dzz                  2.000
  Ge:1K     1      Dzy                  2.000
  Ge:1K     1      Dzx                  2.000
  Ge:1K     1      Dxx-yy               2.000
  Ge:1K     1      Dxy                  2.000
  Ge:1K     1      S                    1.717
  Ge:1K     1      Px                   1.168
  Ge:1K     1      Py                   1.100
  Ge:1K     1      Pz                   1.103
  -------------------------------------------
                           Total:     464.000
  -------------------------------------------
 
     Atomic Populations (Mulliken)
     -----------------------------
Species          Ion     s      p      d      f     Total  Charge (e)
=====================================================================
  Na              1     2.38   6.57   0.00   0.00   8.95     0.05
  Na              2     2.40   6.53   0.00   0.00   8.93     0.07
  Na              3     2.37   6.53   0.00   0.00   8.90     0.10
  Na              4     2.38   6.54   0.00   0.00   8.92     0.08
  Na              5     2.39   6.55   0.00   0.00   8.94     0.06
  Na              6     2.38   6.56   0.00   0.00   8.94     0.06
  Na              7     2.37   6.54   0.00   0.00   8.91     0.09
  Na              8     2.37   6.56   0.00   0.00   8.94     0.06
  Na              9     2.39   6.61   0.00   0.00   9.00    -0.00
  Na             10     2.39   6.55   0.00   0.00   8.94     0.06
  Na             11     2.37   6.56   0.00   0.00   8.94     0.06
  Na             12     2.39   6.59   0.00   0.00   8.98     0.02
  Na             13     2.38   6.54   0.00   0.00   8.92     0.08
  Na             14     2.38   6.57   0.00   0.00   8.95     0.05
  Na             15     2.38   6.54   0.00   0.00   8.92     0.08
  Na             16     2.39   6.52   0.00   0.00   8.91     0.09
  Na             17     2.38   6.57   0.00   0.00   8.95     0.05
  Na             18     2.38   6.54   0.00   0.00   8.92     0.08
  Na             19     2.39   6.52   0.00   0.00   8.91     0.09
  Na             20     2.38   6.54   0.00   0.00   8.92     0.08
  Na             21     2.39   6.55   0.00   0.00   8.94     0.06
  Na             22     2.39   6.61   0.00   0.00   9.00    -0.00
  Na             23     2.39   6.59   0.00   0.00   8.98     0.02
  Na             24     2.37   6.56   0.00   0.00   8.94     0.06
  Na             25     2.38   6.55   0.00   0.00   8.94     0.06
  Na             26     2.39   6.55   0.00   0.00   8.94     0.06
  Na             27     2.37   6.56   0.00   0.00   8.94     0.06
  Na             28     2.37   6.54   0.00   0.00   8.91     0.09
  Na             29     2.40   6.53   0.00   0.00   8.93     0.07
  Na             30     2.38   6.57   0.00   0.00   8.95     0.05
  Na             31     2.38   6.54   0.00   0.00   8.92     0.08
  Na             32     2.37   6.53   0.00   0.00   8.90     0.10
  Ge              1     3.19   8.94  10.00   0.00  22.13    -0.13
  Ge              2     3.20   8.93  10.00   0.00  22.13    -0.13
  Ge              3     3.20   8.93  10.00   0.00  22.13    -0.13
  Ge              4     3.20   8.96  10.00   0.00  22.16    -0.16
  Ge              5     3.19   8.94  10.00   0.00  22.13    -0.13
  Ge              6     3.20   8.93  10.00   0.00  22.13    -0.13
  Ge              7     3.20   8.93  10.00   0.00  22.13    -0.13
  Ge:1K           1     3.72   9.37  10.00   0.00  23.09    -0.09
=====================================================================
 
                 Bond                   Population      Length (A)
======================================================================
======================================================================
 

Writing analysis data to atom-sc.castep_bin

Writing model to atom-sc.check
 
 A BibTeX formatted list of references used in this run has been written to 
 atom-sc.bib
 
Initialisation time =      9.83 s
Calculation time    =   5730.11 s
Finalisation time   =    394.54 s
Total time          =   6134.49 s
Peak Memory Use     = 3019276 kB
  
Overall parallel efficiency rating: Poor (48%)                                  
  
Data was distributed by:-
G-vector (63-way); efficiency rating: Mediocre (58%)                            
k-point (8-way); efficiency rating: Very good (89%)                             
