 +-------------------------------------------------+
 |                                                 |
 |      CCC   AA    SSS  TTTTT  EEEEE  PPPP        |
 |     C     A  A  S       T    E      P   P       |
 |     C     AAAA   SS     T    EEE    PPPP        |
 |     C     A  A     S    T    E      P           |
 |      CCC  A  A  SSS     T    EEEEE  P           |
 |                                                 |
 +-------------------------------------------------+
 |                                                 |
 | Welcome to Academic Release CASTEP version 18.1 |          
 | Ab Initio Total Energy Program                  |
 |                                                 |
 | Authors:                                        |
 | M. Segall, M. Probert, C. Pickard, P. Hasnip,   |
 | S. Clark, K. Refson, J. R. Yates, M. Payne      |
 |                                                 |
 | Contributors:                                   |
 | P. Lindan, P. Haynes, J. White, V. Milman,      |
 | N. Govind, M. Gibson, P. Tulip, V. Cocula,      |
 | B. Montanari, D. Quigley, M. Glover,            |
 | L. Bernasconi, A. Perlov, M. Plummer,           |
 | E. McNellis, J. Meyer, J. Gale, D. Jochym       |
 | J. Aarons, B. Walker, R. Gillen, D. Jones       |
 | T. Green, I. J. Bush, C. J. Armstrong,          |
 | E. J. Higgins, E. L. Brown, M. S. McFly,        |
 | J. Wilkins, B-C. Shih, P. J. P. Byrne           |
 |                                                 |
 | Copyright (c) 2000 - 2017                       |
 |                                                 |
 |     Distributed under the terms of an           |
 |     Agreement between the United Kingdom        |
 |     Car-Parrinello (UKCP) Consortium,           |
 |     Daresbury Laboratory and Accelrys, Inc.     |
 |                                                 |
 | Please cite                                     |
 |                                                 |
 |     "First principles methods using CASTEP"     |
 |                                                 |
 |         Zeitschrift fuer Kristallographie       |
 |           220(5-6) pp. 567-570 (2005)           |
 |                                                 |
 | S. J. Clark, M. D. Segall, C. J. Pickard,       |
 | P. J. Hasnip, M. J. Probert, K. Refson,         |
 | M. C. Payne                                     |
 |                                                 |
 |       in all publications arising from          |
 |              your use of CASTEP                 |
 |                                                 |
 +-------------------------------------------------+


 Compiled for linux_x86_64_gfortran4.8 on Sat, 07 Mar 2020 11:04:05 +0000
 from code version baee3ec33e17+  Mon, 11 Dec 2017 11:05:17 +0000
 Compiler: GNU Fortran 4.8.5; Optimisation: fast
 FFT Lib : default
 Fundamental constants values: CODATA 2014

 Run started: Sun, 08 Aug 2021 10:18:24 +0100

 Atomic calculation performed for C: 1s2 2s2 2p2

 Converged in 55 iterations to an ae energy of -1022.967 eV

   ============================================================                
   | Pseudopotential Report - Date of generation  8-08-2021   |                
   ------------------------------------------------------------                
   | Element: C Ionic charge:  4.00 Level of theory: PBESOL   |                
   | Atomic Solver: Koelling-Harmon                           |                
   |                                                          |                
   |               Reference Electronic Structure             |                
   |         Orbital         Occupation         Energy        |                
   |            2s              2.000           -0.502        |                
   |            2p              2.000           -0.192        |                
   |                                                          |                
   |                 Pseudopotential Definition               |                
   |        Beta     l      e      Rc     scheme   norm       |                
   |          1      0   -0.502   1.395     qc      0         |                
   |          2      0    0.250   1.395     qc      0         |                
   |          3      1   -0.192   1.395     qc      0         |                
   |          4      1    0.250   1.395     qc      0         |                
   |         loc     2    0.000   1.395     pn      0         |                
   |                                                          |                
   | Augmentation charge Rinner = 0.983                       |                
   | Partial core correction Rc = 0.983                       |                
   ------------------------------------------------------------                
   | "2|1.4|10|12|13|20:21(qc=7)"                             |                
   ------------------------------------------------------------                
   |      Author: Chris J. Pickard, Cambridge University      |                
   ============================================================                

 Pseudo atomic calculation performed for C 2s2 2p2

 Converged in 24 iterations to a total energy of -147.8635 eV

 Calculation parallelised over 48 processes.
 Data is distributed by G-vector(16-way) and k-point(3-way)

 ************************************ Title ************************************
 

 ***************************** General Parameters ******************************
  
 output verbosity                               : normal  (1)
 write checkpoint data to                       : graphene.check
 type of calculation                            : Electronic Spectroscopy
 stress calculation                             : off
 density difference calculation                 : off
 electron localisation func (ELF) calculation   : off
 Hirshfeld analysis                             : off
 unlimited duration calculation
 timing information                             : on
 memory usage estimate                          : on
 write extra output files                       : on
 write final potential to formatted file        : on
 write final density to formatted file          : off
 write BibTeX reference list                    : on
 write OTFG pseudopotential files               : on
 write electrostatic potential file             : on
 write bands file                               : on
 checkpoint writing                             : both castep_bin and check files
  
 output         length unit                     : A
 output           mass unit                     : amu
 output           time unit                     : ps
 output         charge unit                     : e
 output           spin unit                     : hbar/2
 output         energy unit                     : eV
 output          force unit                     : eV/A
 output       velocity unit                     : A/ps
 output       pressure unit                     : GPa
 output     inv_length unit                     : 1/A
 output      frequency unit                     : cm-1
 output force constant unit                     : eV/A**2
 output         volume unit                     : A**3
 output   IR intensity unit                     : (D/A)**2/amu
 output         dipole unit                     : D
 output         efield unit                     : eV/A/e
 output        entropy unit                     : J/mol/K
  
 wavefunctions paging                           : none
 random number generator seed                   : randomised (101825053)
 data distribution                              : optimal for this architecture
 optimization strategy                          : maximize speed(+++)

 *********************** Exchange-Correlation Parameters ***********************
  
 using functional                               : PBE for solids (2008)
 relativistic treatment                         : Koelling-Harmon
 DFT+D: Semi-empirical dispersion correction    : off

 ************************* Pseudopotential Parameters **************************
  
 pseudopotential representation                 : reciprocal space
 <beta|phi> representation                      : reciprocal space
 spin-orbit coupling                            : off

 **************************** Basis Set Parameters *****************************
  
 plane wave basis set cut-off                   :   600.0000   eV
 size of standard grid                          :     1.7500
 size of   fine   gmax                          :    21.9610   1/A
 finite basis set correction                    : none

 **************************** Electronic Parameters ****************************
  
 number of  electrons                           :  8.000    
 net charge of system                           :  0.000    
 treating system as non-spin-polarized
 number of bands                                :         14

 ********************* Electronic Minimization Parameters **********************
  
 Method: Treating system as metallic with density mixing treatment of electrons,
         and number of  SD  steps               :          1
         and number of  CG  steps               :          4
  
 total energy / atom convergence tol.           : 0.1000E-07   eV
 eigen-energy convergence tolerance             : 0.1429E-08   eV
 max force / atom convergence tol.              : ignored
 convergence tolerance window                   :          3   cycles
 max. number of SCF cycles                      :       1000
 number of fixed-spin iterations                :         10
 smearing scheme                                : Gaussian
 smearing width                                 : 0.2585E-01   eV
 Fermi energy convergence tolerance             : 0.2721E-13   eV
 periodic dipole correction                     : NONE

 ************************** Density Mixing Parameters **************************
  
 density-mixing scheme                          : Broyden
 max. length of mixing history                  :         20
 charge density mixing amplitude                : 0.8000    
 cut-off energy for mixing                      :  600.0       eV

 *********************** Population Analysis Parameters ************************
  
 Population analysis with cutoff                :  3.000       A
 Population analysis output                     : summary and pdos components
 Partial DOS weights calculated

 ********************* Electronic Spectroscopy Parameters **********************
  
 electronic spectroscopy with theory level      : DFT       
 spectroscopy calculation                       : optics
 max. number of iterations                      :         60
 max. steps per iteration                       :          5
 number of bands / k-point                      :         33
 band convergence tolerance                     : 0.1000E-05   eV
 write orbitals file                            : off

 *******************************************************************************
  

                           -------------------------------
                                      Unit Cell
                           -------------------------------
        Real Lattice(A)                      Reciprocal Lattice(1/A)
     1.2340000    -2.1373507     0.0000000        2.545861146  -1.469853618   0.000000000
     1.2340000     2.1373507     0.0000000        2.545861146   1.469853618   0.000000000
     0.0000000     0.0000000    25.0000000        0.000000000   0.000000000   0.251327412

                       Lattice parameters(A)       Cell Angles
                    a =      2.468000          alpha =   90.000000
                    b =      2.468000          beta  =   90.000000
                    c =     25.000000          gamma =  120.000000

                       Current cell volume =           131.874538       A**3
                                   density =             0.182153   AMU/A**3
                                           =             0.302473     g/cm^3

                           -------------------------------
                                     Cell Contents
                           -------------------------------
                         Total number of ions in cell =    2
                      Total number of species in cell =    1
                        Max number of any one species =    2

            xxxxxxxxxxxxxxxxxxxxxxxxxxxxxxxxxxxxxxxxxxxxxxxxxxxxxxxxxxxx
            x  Element    Atom        Fractional coordinates of atoms  x
            x            Number           u          v          w      x
            x----------------------------------------------------------x
            x  C            1         0.333333   0.666667   0.000000   x 
            x  C            2         0.666667   0.333333   0.000000   x 
            xxxxxxxxxxxxxxxxxxxxxxxxxxxxxxxxxxxxxxxxxxxxxxxxxxxxxxxxxxxx


                         No user defined ionic velocities

                           -------------------------------
                                   Details of Species
                           -------------------------------

                               Mass of species in AMU
                                    C   12.0107000

                          Electric Quadrupole Moment (Barn)
                                    C    0.0332700 Isotope 11

                          Files used for pseudopotentials:
                                    C 2|1.4|10|12|13|20:21(qc=7)

                           -------------------------------
                              k-Points For BZ Sampling
                           -------------------------------
                       Number of kpoints used =            21

                           -------------------------------
                               Symmetry and Constraints
                           -------------------------------

                      Maximum deviation from symmetry = 0.237294E-15     ANG

                      Number of symmetry operations   =          24
                      Number of ionic constraints     =           3
                      Point group of crystal =    27: D6h, 6/mmm, 6/m 2/m 2/m
                      Space group of crystal =   191: P6/mmm, -P 6 2

             Set iprint > 1 for details on symmetry rotations/translations

                         Centre of mass is constrained
             Set iprint > 1 for details of linear ionic constraints

                         Number of cell constraints= 4
                         Cell constraints are:  1 1 3 0 0 0

                         External pressure/stress (GPa)
                          0.00000   0.00000   0.00000
                                    0.00000   0.00000
                                              0.00000
  
+---------------- MEMORY AND SCRATCH DISK ESTIMATES PER PROCESS --------------+
|                                                     Memory          Disk    |
| Baseline code, static data and system overhead     4741.0 MB         0.0 MB |
| BLAS internal memory storage                          0.0 MB         0.0 MB |
| Model and support data                               46.4 MB         0.0 MB |
| Electronic energy minimisation requirements           2.5 MB         0.0 MB |
| Force calculation requirements                        0.6 MB         0.0 MB |
|                                               ----------------------------- |
| Approx. total storage required per process         4789.9 MB         0.0 MB |
|                                                                             |
| Requirements will fluctuate during execution and may exceed these estimates |
+-----------------------------------------------------------------------------+
Calculating total energy with cut-off of  600.000 eV.
------------------------------------------------------------------------ <-- SCF
SCF loop      Energy           Fermi           Energy gain       Timer   <-- SCF
                               energy          per atom          (sec)   <-- SCF
------------------------------------------------------------------------ <-- SCF
Initial  -8.60273694E+001  0.00000000E+000                         4.88  <-- SCF
      1  -2.93856606E+002 -8.12030988E-001   1.03914619E+002       5.32  <-- SCF
      2  -3.14709994E+002 -6.60229302E+000   1.04266937E+001       5.68  <-- SCF
      3  -3.15167939E+002 -6.66158846E+000   2.28972794E-001       6.01  <-- SCF
      4  -3.13857619E+002 -5.13368501E+000  -6.55160232E-001       6.43  <-- SCF
      5  -3.13800678E+002 -4.64952859E+000  -2.84703930E-002       6.88  <-- SCF
      6  -3.13792601E+002 -4.43117494E+000  -4.03874450E-003       7.35  <-- SCF
      7  -3.13785704E+002 -4.14957692E+000  -3.44831524E-003       7.79  <-- SCF
      8  -3.13784189E+002 -3.97814110E+000  -7.57602477E-004       8.23  <-- SCF
      9  -3.13781693E+002 -3.79519069E+000  -1.24812876E-003       8.68  <-- SCF
     10  -3.13781312E+002 -3.67965731E+000  -1.90119134E-004       9.14  <-- SCF
     11  -3.13781794E+002 -3.57592468E+000   2.40616855E-004       9.57  <-- SCF
     12  -3.13782243E+002 -3.49394229E+000   2.24911268E-004      10.01  <-- SCF
     13  -3.13782405E+002 -3.43107227E+000   8.06640649E-005      10.42  <-- SCF
     14  -3.13782421E+002 -3.36616935E+000   8.16444505E-006      10.84  <-- SCF
     15  -3.13782406E+002 -3.32683477E+000  -7.78557723E-006      11.27  <-- SCF
     16  -3.13782232E+002 -3.26353074E+000  -8.68974738E-005      11.69  <-- SCF
     17  -3.13782184E+002 -3.24645807E+000  -2.37355205E-005      12.09  <-- SCF
     18  -3.13782001E+002 -3.15323089E+000  -9.15673426E-005      12.50  <-- SCF
     19  -3.13782314E+002 -3.15730501E+000   1.56549120E-004      12.90  <-- SCF
     20  -3.13782487E+002 -3.12343643E+000   8.62129527E-005      13.34  <-- SCF
     21  -3.13782578E+002 -3.11202061E+000   4.58878263E-005      13.75  <-- SCF
     22  -3.13782667E+002 -3.10913446E+000   4.41814087E-005      14.16  <-- SCF
     23  -3.13782692E+002 -3.10798075E+000   1.26940800E-005      14.57  <-- SCF
     24  -3.13782696E+002 -3.10819895E+000   2.05304796E-006      14.97  <-- SCF
     25  -3.13782698E+002 -3.10816171E+000   1.08731461E-006      15.35  <-- SCF
     26  -3.13782699E+002 -3.10813089E+000   5.58456284E-008      15.74  <-- SCF
     27  -3.13782699E+002 -3.10813851E+000   1.92532596E-008      16.13  <-- SCF
     28  -3.13782699E+002 -3.10813973E+000   2.18193812E-009      16.53  <-- SCF
     29  -3.13782699E+002 -3.10814001E+000  -8.12450509E-010      16.93  <-- SCF
------------------------------------------------------------------------ <-- SCF
 
Final energy, E             =  -313.7813095123     eV
Final free energy (E-TS)    =  -313.7826986001     eV
(energies not corrected for finite basis set)
 
NB est. 0K energy (E-0.5TS)      =  -313.7820040562     eV
 

Writing analysis data to graphene.castep_bin

Writing model to graphene.check
 
+---------------- MEMORY AND SCRATCH DISK ESTIMATES PER PROCESS --------------+
|                                                     Memory          Disk    |
|                                               ----------------------------- |
| Approx. total storage required per process           58.3 MB         0.0 MB |
|                                                                             |
| Requirements will fluctuate during execution and may exceed these estimates |
+-----------------------------------------------------------------------------+
 
  =====================================================================
  +                                                                   +
  +                 Calculation of Spectral Properties                +
  +                                                                   +
  + Calculation re-parallelised over 48 processes.                    +
  + Data distributed by G-vector(16-way), k-point(3-way), band(1-way) +
  + Data distributed by G-vector(16-way), k-point(3-way)              +
  +                                                                   +
  =====================================================================

 Pseudo atomic calculation performed for C 2s2 2p2

 Converged in 24 iterations to a total energy of -147.8635 eV

  Starting k-point:        1 of        7 on this process      |<-- SPEC
  Starting k-point:        2 of        7 on this process      |<-- SPEC
  Starting k-point:        3 of        7 on this process      |<-- SPEC
  Starting k-point:        4 of        7 on this process      |<-- SPEC
  Starting k-point:        5 of        7 on this process      |<-- SPEC
  Starting k-point:        6 of        7 on this process      |<-- SPEC
  Starting k-point:        7 of        7 on this process      |<-- SPEC
  Total time to compute matrix elements              5.43 sec |<-- SPEC
  
  + Calculation re-parallelised over 48 processes.                    +
  + Data distributed by G-vector(16-way), k-point(3-way)              +

 ******************** Symmetrised Forces ********************
 *                                                          *
 *               Cartesian components (eV/A)                *
 * -------------------------------------------------------- *
 *                         x            y            z      *
 *                                                          *
 * C               1      0.00000     -0.00000      0.00000 *
 * C               2      0.00000      0.00000      0.00000 *
 *                                                          *
 ************************************************************

 Pseudo atomic calculation performed for C 2s2 2p2

 Converged in 24 iterations to a total energy of -147.8635 eV

Charge spilling parameter for spin component 1 = 1.23%

            Orbital Populations       
     Ion    Atom   Orbital             Charge
  -------------------------------------------
      C     1      S                    1.053
      C     1      Px                   0.992
      C     1      Py                   0.955
      C     1      Pz                   1.000
      C     2      S                    1.053
      C     2      Px                   0.992
      C     2      Py                   0.955
      C     2      Pz                   1.000
  -------------------------------------------
                           Total:       8.000
  -------------------------------------------

     Atomic Populations (Mulliken)
     -----------------------------
Species          Ion     s      p      d      f     Total  Charge (e)
=====================================================================
  C               1     1.05   2.95   0.00   0.00   4.00     0.00
  C               2     1.05   2.95   0.00   0.00   4.00     0.00
=====================================================================

                 Bond                   Population      Length (A)
======================================================================
               C 1 -- C 2                    3.00        1.42490
======================================================================


Writing analysis data to graphene.castep_bin

Writing model to graphene.check
 
 A BibTeX formatted list of references used in this run has been written to 
 graphene.bib
 
Initialisation time =      3.74 s
Calculation time    =     22.13 s
Finalisation time   =      1.72 s
Total time          =     27.59 s
Peak Memory Use     = 5009280 kB
  
Overall parallel efficiency rating: Mediocre (52%)                              
  
Data was distributed by:-
G-vector (16-way); efficiency rating: Mediocre (55%)                            
k-point (3-way); efficiency rating: Very good (83%)                             
  
Parallel notes:
1) Calculation only took 25.9 s, so efficiency estimates may be inaccurate.     
