 +-------------------------------------------------+
 |                                                 |
 |      CCC   AA    SSS  TTTTT  EEEEE  PPPP        |
 |     C     A  A  S       T    E      P   P       |
 |     C     AAAA   SS     T    EEE    PPPP        |
 |     C     A  A     S    T    E      P           |
 |      CCC  A  A  SSS     T    EEEEE  P           |
 |                                                 |
 +-------------------------------------------------+
 |                                                 |
 | Welcome to Academic Release CASTEP version 20.1 |          
 | Ab Initio Total Energy Program                  |
 |                                                 |
 | Authors:                                        |
 | M. Segall, M. Probert, C. Pickard, P. Hasnip,   |
 | S. Clark, K. Refson, J. R. Yates, M. Payne      |
 |                                                 |
 | Contributors:                                   |
 | P. Lindan, P. Haynes, J. White, V. Milman,      |
 | N. Govind, M. Gibson, P. Tulip, V. Cocula,      |
 | B. Montanari, D. Quigley, M. Glover,            |
 | L. Bernasconi, A. Perlov, M. Plummer,           |
 | E. McNellis, J. Meyer, J. Gale, D. Jochym       |
 | J. Aarons, B. Walker, R. Gillen, D. Jones       |
 | T. Green, I. J. Bush, C. J. Armstrong,          |
 | E. J. Higgins, E. L. Brown, M. S. McFly,        |
 | J. Wilkins, B-C. Shih, P. J. P. Byrne,          |
 | R. J. Maurer, J. C. Womack, A. Bartok-Partay    |
 |                                                 |
 | Copyright (c) 2000 - 2019                       |
 |                                                 |
 |     Distributed under the terms of an           |
 |     Agreement between the United Kingdom        |
 |     Car-Parrinello (UKCP) Consortium,           |
 |     Daresbury Laboratory and Accelrys, Inc.     |
 |                                                 |
 | Please cite                                     |
 |                                                 |
 |     "First principles methods using CASTEP"     |
 |                                                 |
 |         Zeitschrift fuer Kristallographie       |
 |           220(5-6) pp. 567-570 (2005)           |
 |                                                 |
 | S. J. Clark, M. D. Segall, C. J. Pickard,       |
 | P. J. Hasnip, M. J. Probert, K. Refson,         |
 | M. C. Payne                                     |
 |                                                 |
 |       in all publications arising from          |
 |              your use of CASTEP                 |
 |                                                 |
 +-------------------------------------------------+
 |                                                 |
 |              http://www.castep.org              |
 |                                                 |
 +-------------------------------------------------+



 Compiled for linux_x86_64_gfortran7.0 on Fri, 20 Sep 2019 14:09:55 +0100
 from code version Version unavailable
 Compiler: GNU Fortran 7.4.0; Optimisation: fast
 MATHLIBS: default (LAPACK version 3.7.1)
 FFT Lib : default
 Fundamental constants values: CODATA 2014

 Run started: Tue, 16 Feb 2021 01:18:40 +0000
 Warning - deprecated keyword PHONON_SUM_RULE found in input file
         - preferred usage is PHONON_SUM_RULE_METHOD
 +-------------------------------------------------+
 |                                                 |
 |  D D D D    F F F F F  P P P P     T T T T T    |
 |  D       D  F          P       P       T        |
 |  D       D  F F F F    P P P P         T        |
 |  D       D  F          P               T        |
 |  D D D D    F          P               T        |
 |                                                 |
 +-------------------------------------------------+
 |                                                 |
 | Welcome to Castep Linear Response (DFPT)        |
 |                                                 |
 | Copyright (c) 2006 - 2019                       |
 |                                                 |
 | Please cite the following publications in all   |
 | work arising from your use of CASTEP LR.        |
 |                                                 |
 | K. Refson, S. J. Clark and P. R. Tulip          |
 | Variational density functional perturbation     |
 | theory for dielectrics and lattice dynamics     |
 | Phys. Rev. B 73(15), 155114 (2006)              |
 +-------------------------------------------------+


 Atomic calculation performed for H: 1s1

 Converged in 41 iterations to an ae energy of -12.488 eV

   ============================================================                
   | Pseudopotential Report - Date of generation 16-02-2021   |                
   ------------------------------------------------------------                
   | Element: H Ionic charge:  1.00 Level of theory: PBE      |                
   | Atomic Solver: Koelling-Harmon                           |                
   |                                                          |                
   |               Reference Electronic Structure             |                
   |         Orbital         Occupation         Energy        |                
   |            1s              1.000           -0.239        |                
   |                                                          |                
   |                 Pseudopotential Definition               |                
   |        Beta     l      e      Rc     scheme   norm       |                
   |          1      0   -0.239   0.803     qc      1         |                
   |         loc     1    0.000   0.803     pn      0         |                
   |                                                          |                
   | No charge augmentation                                   |                
   | No partial core correction                               |                
   ------------------------------------------------------------                
   | "1|0.8|14|16|19|10N(qc=8)"                               |                
   ------------------------------------------------------------                
   |      Author: Chris J. Pickard, Cambridge University      |                
   ============================================================                

 Atomic calculation performed for C: 1s2 2s2 2p2

 Converged in 54 iterations to an ae energy of -1027.632 eV

   ============================================================                
   | Pseudopotential Report - Date of generation 16-02-2021   |                
   ------------------------------------------------------------                
   | Element: C Ionic charge:  4.00 Level of theory: PBE      |                
   | Atomic Solver: Koelling-Harmon                           |                
   |                                                          |                
   |               Reference Electronic Structure             |                
   |         Orbital         Occupation         Energy        |                
   |            2s              2.000           -0.505        |                
   |            2p              2.000           -0.194        |                
   |                                                          |                
   |                 Pseudopotential Definition               |                
   |        Beta     l      e      Rc     scheme   norm       |                
   |          1      0   -0.505   1.201     qc      1         |                
   |         loc     1   -0.194   1.201     qc      1         |                
   |                                                          |                
   | No charge augmentation                                   |                
   | Partial core correction Rc = 0.839                       |                
   ------------------------------------------------------------                
   | "1|1.2|17|20|23|20N:21L(qc=8)"                           |                
   ------------------------------------------------------------                
   |      Author: Chris J. Pickard, Cambridge University      |                
   ============================================================                

 Atomic calculation performed for N: 1s2 2s2 2p3

 Converged in 55 iterations to an ae energy of -1481.742 eV

   ============================================================                
   | Pseudopotential Report - Date of generation 16-02-2021   |                
   ------------------------------------------------------------                
   | Element: N Ionic charge:  5.00 Level of theory: PBE      |                
   | Atomic Solver: Koelling-Harmon                           |                
   |                                                          |                
   |               Reference Electronic Structure             |                
   |         Orbital         Occupation         Energy        |                
   |            2s              2.000           -0.683        |                
   |            2p              3.000           -0.261        |                
   |                                                          |                
   |                 Pseudopotential Definition               |                
   |        Beta     l      e      Rc     scheme   norm       |                
   |          1      0   -0.683   1.100     qc      1         |                
   |         loc     1   -0.261   1.100     qc      1         |                
   |                                                          |                
   | No charge augmentation                                   |                
   | Partial core correction Rc = 0.769                       |                
   ------------------------------------------------------------                
   | "1|1.1|23|26|31|20N:21L(qc=9)"                           |                
   ------------------------------------------------------------                
   |      Author: Chris J. Pickard, Cambridge University      |                
   ============================================================                

 Atomic calculation performed for O: 1s2 2s2 2p4

 Converged in 61 iterations to an ae energy of -2040.902 eV

   ============================================================                
   | Pseudopotential Report - Date of generation 16-02-2021   |                
   ------------------------------------------------------------                
   | Element: O Ionic charge:  6.00 Level of theory: PBE      |                
   | Atomic Solver: Koelling-Harmon                           |                
   |                                                          |                
   |               Reference Electronic Structure             |                
   |         Orbital         Occupation         Energy        |                
   |            2s              2.000           -0.881        |                
   |            2p              4.000           -0.332        |                
   |                                                          |                
   |                 Pseudopotential Definition               |                
   |        Beta     l      e      Rc     scheme   norm       |                
   |          1      0   -0.881   1.196     qc      1         |                
   |         loc     1   -0.332   1.196     qc      1         |                
   |                                                          |                
   | No charge augmentation                                   |                
   | Partial core correction Rc = 0.842                       |                
   ------------------------------------------------------------                
   | "1|1.2|23|26|31|20N:21L(qc=9)"                           |                
   ------------------------------------------------------------                
   |      Author: Chris J. Pickard, Cambridge University      |                
   ============================================================                

 Pseudo atomic calculation performed for H 1s1

 Converged in 21 iterations to a total energy of -12.4790 eV

 Pseudo atomic calculation performed for C 2s2 2p2

 Converged in 29 iterations to a total energy of -152.4291 eV

 Pseudo atomic calculation performed for N 2s2 2p3

 Converged in 36 iterations to a total energy of -267.0280 eV

 Pseudo atomic calculation performed for O 2s2 2p4

 Converged in 41 iterations to a total energy of -429.0667 eV
 Calculation parallelised over 4 processes.
 Data is distributed by k-point(4-way)

 ************************************ Title ************************************
 

 ***************************** General Parameters ******************************
  
 output verbosity                               : normal  (1)
 write checkpoint data to                       : bgua.check
 type of calculation                            : Thermodynamics calculation
 stress calculation                             : off
 density difference calculation                 : off
 electron localisation func (ELF) calculation   : off
 Hirshfeld analysis                             : off
 molecular orbital projected DOS                : off
 deltaSCF calculation                           : off
 unlimited duration calculation
 timing information                             : on
 memory usage estimate                          : on
 write extra output files                       : on
 write final potential to formatted file        : off
 write final density to formatted file          : off
 write structure in CELL formatted file         : on
 write BibTeX reference list                    : on
 write OTFG pseudopotential files               : on
 write electrostatic potential file             : on
 write bands file                               : on
 checkpoint writing                             : both castep_bin and check files
  
 output         length unit                     : A
 output           mass unit                     : amu
 output           time unit                     : ps
 output         charge unit                     : e
 output           spin unit                     : hbar/2
 output         energy unit                     : eV
 output          force unit                     : eV/A
 output       velocity unit                     : A/ps
 output       pressure unit                     : GPa
 output     inv_length unit                     : 1/A
 output      frequency unit                     : cm-1
 output force constant unit                     : eV/A**2
 output         volume unit                     : A**3
 output   IR intensity unit                     : (D/A)**2/amu
 output         dipole unit                     : D
 output         efield unit                     : eV/A/e
 output        entropy unit                     : J/mol/K
 output    efield chi2 unit                     : pm/V
  
 wavefunctions paging                           : none
 random number generator seed                   : randomised (11840112)
 data distribution                              : optimal for this architecture
 optimization strategy                          : maximize speed(+++)

 *********************** Exchange-Correlation Parameters ***********************
  
 using functional                               : Perdew Burke Ernzerhof
 relativistic treatment                         : Koelling-Harmon
 DFT+D: Semi-empirical dispersion correction    : on
 SEDC with                                      : TS correction scheme

 ************************* Pseudopotential Parameters **************************
  
 pseudopotential representation                 : reciprocal space
 <beta|phi> representation                      : reciprocal space
 spin-orbit coupling                            : off

 **************************** Basis Set Parameters *****************************
  
 plane wave basis set cut-off                   :   800.0000   eV
 size of standard grid                          :     1.7500
 size of   fine   gmax                          :    25.3584   1/A
 finite basis set correction                    : none

 **************************** Electronic Parameters ****************************
  
 number of  electrons                           :  224.0    
 net charge of system                           :  0.000    
 treating system as non-spin-polarized
 number of bands                                :        112

 ********************* Electronic Minimization Parameters **********************
  
 Method: Treating system as non-metallic,
         and number of  SD  steps               :          1
         and number of  CG  steps               :          4
  
 total energy / atom convergence tol.           : 0.2219E-09   eV
 eigen-energy convergence tolerance             : 0.1268E-09   eV
 max force / atom convergence tol.              : ignored
 convergence tolerance window                   :          3   cycles
 max. number of SCF cycles                      :       2000
 periodic dipole correction                     : NONE

 ************************** Density Mixing Parameters **************************
  
 density-mixing scheme                          : Broyden
 max. length of mixing history                  :         20
 charge density mixing amplitude                : 0.8000    
 cut-off energy for mixing                      :  800.0       eV

 *********************** Population Analysis Parameters ************************
  
 Population analysis with cutoff                :  3.000       A
 Population analysis output                     : summary and pdos components

 ****************************** Phonon Parameters ******************************
  
 phonon calculation method                      : finite displacement
 finite displacement amplitude                  : 0.5292E-02   A
 fine phonon calculation method                 : supercell
 non-periodic force constant method             : Weighted cumulant sum
 LO/TO splitting term                           : included
 acoustic phonon sum rule                       : correct D(q) in recip-space
 Born effective charges                         : calculated
 Born charge sum rule                           : explicitly enforced
 Raman intensities                              : not calculated
 phonon k-points                                : use reduced set
 phonon DOS                                     : not calculated
 no timed backups

 ************************** Thermodynamics Parameters **************************
 Helmholtz free energy                          : calculated
 Initial temperature                            :  293.0       K
 Final temperature                              :  303.0       K
 Spacing between temperature values             :  5.000       K
 Number of temperature values                   :          4
 band convergence tolerance                     : 0.1000E-08   eV

 *******************************************************************************
  

                           -------------------------------
                                      Unit Cell
                           -------------------------------
        Real Lattice(A)                      Reciprocal Lattice(1/A)
     3.1866839    -1.7249890     0.0000000        1.979385268   0.014197133   0.000000000
    -0.0702061     9.7882386     0.0000000        0.348828632   0.644413716   0.000000000
     0.0000000     0.0000000    18.5798310        0.000000000   0.000000000   0.338172361

                       Lattice parameters(A)       Cell Angles
                    a =      3.623609          alpha =   90.000000
                    b =      9.788490          beta  =   90.000000
                    c =     18.579831          gamma =  118.838145

                       Current cell volume =           577.292400       A**3
                                   density =             1.047139   AMU/A**3
                                           =             1.738815     g/cm^3

                           -------------------------------
                                     Cell Contents
                           -------------------------------
                         Total number of ions in cell =   64
                      Total number of species in cell =    4
                        Max number of any one species =   20

            xxxxxxxxxxxxxxxxxxxxxxxxxxxxxxxxxxxxxxxxxxxxxxxxxxxxxxxxxxxx
            x  Element    Atom        Fractional coordinates of atoms  x
            x            Number           u          v          w      x
            x----------------------------------------------------------x
            x  H            1         0.072124   0.570133   0.262382   x 
            x  H            2         0.048373   0.449374   0.153212   x 
            x  H            3         0.060887   0.270086   0.153135   x 
            x  H            4         0.006077   0.364189   0.517347   x 
            x  H            5        -0.014722   0.104914   0.518924   x 
            x  H            6        -0.072124  -0.070133   0.762382   x 
            x  H            7        -0.048373   0.050626   0.653212   x 
            x  H            8        -0.060887   0.229914   0.653135   x 
            x  H            9        -0.006077   0.135811   1.017347   x 
            x  H           10         0.014722   0.395086   1.018924   x 
            x  H           11        -0.072124  -0.570133  -0.262382   x 
            x  H           12        -0.048373  -0.449374  -0.153212   x 
            x  H           13        -0.060887  -0.270086  -0.153135   x 
            x  H           14        -0.006077  -0.364189  -0.517347   x 
            x  H           15         0.014722  -0.104914  -0.518924   x 
            x  H           16         0.072124   1.070133   0.237618   x 
            x  H           17         0.048373   0.949374   0.346788   x 
            x  H           18         0.060887   0.770086   0.346865   x 
            x  H           19         0.006077   0.864189  -0.017347   x 
            x  H           20        -0.014722   0.604914  -0.018924   x 
            x  C            1         0.054922   0.352368   0.252987   x 
            x  C            2         0.029935   0.230145   0.358278   x 
            x  C            3         0.045306   0.353156   0.399334   x 
            x  C            4         0.068248   0.486506   0.365788   x 
            x  C            5         0.003630   0.166840   0.469464   x 
            x  C            6        -0.054922   0.147632   0.752987   x 
            x  C            7        -0.029935   0.269855   0.858278   x 
            x  C            8        -0.045306   0.146844   0.899334   x 
            x  C            9        -0.068248   0.013494   0.865788   x 
            x  C           10        -0.003630   0.333160   0.969464   x 
            x  C           11        -0.054922  -0.352368  -0.252987   x 
            x  C           12        -0.029935  -0.230145  -0.358278   x 
            x  C           13        -0.045306  -0.353156  -0.399334   x 
            x  C           14        -0.068248  -0.486506  -0.365788   x 
            x  C           15        -0.003630  -0.166840  -0.469464   x 
            x  C           16         0.054922   0.852368   0.247013   x 
            x  C           17         0.029935   0.730145   0.141722   x 
            x  C           18         0.045306   0.853156   0.100666   x 
            x  C           19         0.068248   0.986506   0.134212   x 
            x  C           20         0.003630   0.666840   0.030536   x 
            x  N            1         0.071488   0.476939   0.291051   x 
            x  N            2         0.059450   0.360420   0.180923   x 
            x  N            3         0.037782   0.226652   0.285314   x 
            x  N            4         0.030562   0.309796   0.470540   x 
            x  N            5         0.005064   0.113600   0.403054   x 
            x  N            6        -0.071488   0.023061   0.791051   x 
            x  N            7        -0.059450   0.139580   0.680923   x 
            x  N            8        -0.037782   0.273348   0.785314   x 
            x  N            9        -0.030562   0.190204   0.970540   x 
            x  N           10        -0.005064   0.386400   0.903054   x 
            x  N           11        -0.071488  -0.476939  -0.291051   x 
            x  N           12        -0.059450  -0.360420  -0.180923   x 
            x  N           13        -0.037782  -0.226652  -0.285314   x 
            x  N           14        -0.030562  -0.309796  -0.470540   x 
            x  N           15        -0.005064  -0.113600  -0.403054   x 
            x  N           16         0.071488   0.976939   0.208949   x 
            x  N           17         0.059450   0.860420   0.319077   x 
            x  N           18         0.037782   0.726652   0.214686   x 
            x  N           19         0.030562   0.809796   0.029460   x 
            x  N           20         0.005064   0.613600   0.096946   x 
            x  O            1         0.082344   0.605316   0.395895   x 
            x  O            2        -0.082344  -0.105316   0.895895   x 
            x  O            3        -0.082344  -0.605316  -0.395895   x 
            x  O            4         0.082344   1.105316   0.104105   x 
            xxxxxxxxxxxxxxxxxxxxxxxxxxxxxxxxxxxxxxxxxxxxxxxxxxxxxxxxxxxx


                         No user defined ionic velocities

                           -------------------------------
                                   Details of Species
                           -------------------------------

                               Mass of species in AMU
                                    H    1.0079400
                                    C   12.0107000
                                    N   14.0067400
                                    O   15.9994000

                          Electric Quadrupole Moment (Barn)
                                    H    0.0028600 Isotope  2
                                    C    0.0332700 Isotope 11
                                    N    0.0204400 Isotope 14
                                    O   -0.0255800 Isotope 17

                          Files used for pseudopotentials:
                                    H 1|0.8|14|16|19|10N(qc=8)
                                    C 1|1.2|17|20|23|20N:21L(qc=8)
                                    N 1|1.1|23|26|31|20N:21L(qc=9)
                                    O 1|1.2|23|26|31|20N:21L(qc=9)

                           -------------------------------
                              k-Points For BZ Sampling
                           -------------------------------
                       MP grid size for SCF calculation is  4  2  1
                            with an offset of   0.000  0.000  0.000
                       Number of kpoints used =             4

                           -------------------------------
                               Symmetry and Constraints
                           -------------------------------

                      Maximum deviation from symmetry = 0.380324E-13     ANG

                      Number of symmetry operations   =           4
         There are no ionic constraints specified or generated for this cell
                      Point group of crystal =     5: C2h, 2/m, 2/m
                      Space group of crystal =    14: P2_1/c, -P 2ybc

             Set iprint > 1 for details on symmetry rotations/translations

                         Centre of mass is NOT constrained

                         Number of cell constraints= 2
                         Cell constraints are:  1 2 3 0 0 6

                         External pressure/stress (GPa)
                          0.00000   0.00000   0.00000
                                    0.00000   0.00000
                                              0.00000

                                --------------------
                                  DFT-D parameters
                                --------------------

                          Dispersion-correction scheme : TS        
                        Parameter sR :   0.940000 (default)
                        Parameter d  :  20.000000 (default)

        xxxxxxxxxxxxxxxxxxxxxxxxxxxxxxxxxxxxxxxxxxxxxxxxxxxxxxxxxxxxxxxxxxxx
        x              Atomic DFT-D parameters                             x
        x  Species      C6            alpha        R0                      x
        x               eV A^6        A^3          A                       x
        x------------------------------------------------------------------x
        x  H             3.8839       0.6668       1.6404   (default)      x
        x  C            27.8448       1.7782       1.8997   (default)      x
        x  N            14.4602       1.0966       1.7675   (default)      x
        x  O             9.3214       0.8002       1.6881   (default)      x
        xxxxxxxxxxxxxxxxxxxxxxxxxxxxxxxxxxxxxxxxxxxxxxxxxxxxxxxxxxxxxxxxxxxx

  
+---------------- MEMORY AND SCRATCH DISK ESTIMATES PER PROCESS --------------+
|                                                     Memory          Disk    |
| Baseline code, static data and system overhead      493.0 MB         0.0 MB |
| BLAS internal memory storage                          0.0 MB         0.0 MB |
| Model and support data                              181.4 MB         0.0 MB |
| Electronic energy minimisation requirements         370.5 MB         0.0 MB |
| Force calculation requirements                       52.2 MB         0.0 MB |
|                                               ----------------------------- |
| Approx. total storage required per process         1044.9 MB         0.0 MB |
|                                                                             |
| Requirements will fluctuate during execution and may exceed these estimates |
+-----------------------------------------------------------------------------+
Calculating total energy with cut-off of  800.000 eV.
------------------------------------------------------------------------ <-- SCF
SCF loop      Energy                           Energy gain       Timer   <-- SCF
                                               per atom          (sec)   <-- SCF
------------------------------------------------------------------------ <-- SCF
Initial  -6.48116484E+003                                          8.22  <-- SCF
      1  -9.91557980E+003                    5.36627338E+001      42.02  <-- SCF
      2  -1.07747146E+004                    1.34239807E+001      69.55  <-- SCF
      3  -1.08328283E+004                    9.08026760E-001     100.75  <-- SCF
      4  -1.08080135E+004                   -3.87731046E-001     127.10  <-- SCF
      5  -1.08048391E+004                   -4.96003087E-002     154.85  <-- SCF
      6  -1.08049767E+004                    2.15104036E-003     186.50  <-- SCF
      7  -1.08050085E+004                    4.95530742E-004     218.35  <-- SCF
      8  -1.08050212E+004                    1.99146348E-004     248.19  <-- SCF
      9  -1.08050242E+004                    4.62660456E-005     280.04  <-- SCF
     10  -1.08050252E+004                    1.58521077E-005     308.54  <-- SCF
     11  -1.08050252E+004                    1.03405586E-006     337.85  <-- SCF
     12  -1.08050252E+004                   -9.65438739E-008     366.14  <-- SCF
     13  -1.08050252E+004                   -1.49671820E-008     395.31  <-- SCF
     14  -1.08050252E+004                   -1.23247843E-008     426.33  <-- SCF
     15  -1.08050252E+004                   -9.61377212E-010     454.71  <-- SCF
     16  -1.08050252E+004                    1.95282012E-010     471.35  <-- SCF
     17  -1.08050252E+004                    6.66327360E-011     486.27  <-- SCF
     18  -1.08050252E+004                    3.47785662E-011     501.17  <-- SCF
------------------------------------------------------------------------ <-- SCF
 
Final energy =  -10805.02523019     eV
(energy not corrected for finite basis set)
 
 WARNING: Your unit cell might be too small to get accurate results for van der Waals
(SEDC) Total Energy Correction : -0.499572E+01 eV

Dispersion corrected final energy* =  -10810.02095281     eV

 * not corrected for finite basis set


Writing analysis data to bgua.castep_bin

Writing model to bgua.check

 Efield perturbation    1:  X                                           541.73s
  +---------------- MEMORY AND SCRATCH DISK ESTIMATES PER PROCESS --------------+
  |                                                     Memory          Disk    |
  | Baseline code, static data and system overhead      493.0 MB         0.0 MB |
  | BLAS internal memory storage                          0.0 MB         0.0 MB |
  | Model and support data                              181.5 MB         0.0 MB |
  | DFPT E-field response requirements                  493.6 MB         0.0 MB |
  |                                               ----------------------------- |
  | Approx. total storage required per process         1168.1 MB         0.0 MB |
  |                                                                             |
  | Requirements will fluctuate during execution and may exceed these estimates |
  +-----------------------------------------------------------------------------+

 Efield perturbation    2:  Y                                          1325.05s

 Efield perturbation    3:  Z                                          1736.66s
                                                                         
   Supercell generated using matrix  [1,0,0; 0,1,0; 0,0,1] 
                                                                         

                           -------------------------------
                                      Unit Cell
                           -------------------------------
        Real Lattice(A)                      Reciprocal Lattice(1/A)
     3.1866839    -1.7249890     0.0000000        1.979385268   0.014197133   0.000000000
    -0.0702061     9.7882386     0.0000000        0.348828632   0.644413716   0.000000000
     0.0000000     0.0000000    18.5798310        0.000000000   0.000000000   0.338172361

                       Lattice parameters(A)       Cell Angles
                    a =      3.623609          alpha =   90.000000
                    b =      9.788490          beta  =   90.000000
                    c =     18.579831          gamma =  118.838145

                       Current cell volume =           577.292400       A**3
                                   density =             1.047139   AMU/A**3
                                           =             1.738815     g/cm^3

                           -------------------------------
                                     Cell Contents
                           -------------------------------
                         Total number of ions in cell =   64
                      Total number of species in cell =    4
                        Max number of any one species =   20

            xxxxxxxxxxxxxxxxxxxxxxxxxxxxxxxxxxxxxxxxxxxxxxxxxxxxxxxxxxxx
            x  Element    Atom        Fractional coordinates of atoms  x
            x            Number           u          v          w      x
            x----------------------------------------------------------x
            x  H            1         0.072124   0.570133   0.262382   x 
            x  H            2         0.048373   0.449374   0.153212   x 
            x  H            3         0.060887   0.270086   0.153135   x 
            x  H            4         0.006077   0.364189   0.517347   x 
            x  H            5         0.985278   0.104914   0.518924   x 
            x  H            6         0.927876   0.929867   0.762382   x 
            x  H            7         0.951627   0.050626   0.653212   x 
            x  H            8         0.939113   0.229914   0.653135   x 
            x  H            9         0.993923   0.135811   0.017347   x 
            x  H           10         0.014722   0.395086   0.018924   x 
            x  H           11         0.927876   0.429867   0.737618   x 
            x  H           12         0.951627   0.550626   0.846788   x 
            x  H           13         0.939113   0.729914   0.846865   x 
            x  H           14         0.993923   0.635811   0.482653   x 
            x  H           15         0.014722   0.895086   0.481076   x 
            x  H           16         0.072124   0.070133   0.237618   x 
            x  H           17         0.048373   0.949374   0.346788   x 
            x  H           18         0.060887   0.770086   0.346865   x 
            x  H           19         0.006077   0.864189   0.982653   x 
            x  H           20         0.985278   0.604914   0.981076   x 
            x  C            1         0.054922   0.352368   0.252987   x 
            x  C            2         0.029935   0.230145   0.358278   x 
            x  C            3         0.045306   0.353156   0.399334   x 
            x  C            4         0.068248   0.486506   0.365788   x 
            x  C            5         0.003630   0.166840   0.469464   x 
            x  C            6         0.945078   0.147632   0.752987   x 
            x  C            7         0.970065   0.269855   0.858278   x 
            x  C            8         0.954694   0.146844   0.899334   x 
            x  C            9         0.931752   0.013494   0.865788   x 
            x  C           10         0.996370   0.333160   0.969464   x 
            x  C           11         0.945078   0.647632   0.747013   x 
            x  C           12         0.970065   0.769855   0.641722   x 
            x  C           13         0.954694   0.646844   0.600666   x 
            x  C           14         0.931752   0.513494   0.634212   x 
            x  C           15         0.996370   0.833160   0.530536   x 
            x  C           16         0.054922   0.852368   0.247013   x 
            x  C           17         0.029935   0.730145   0.141722   x 
            x  C           18         0.045306   0.853156   0.100666   x 
            x  C           19         0.068248   0.986506   0.134212   x 
            x  C           20         0.003630   0.666840   0.030536   x 
            x  N            1         0.071488   0.476939   0.291051   x 
            x  N            2         0.059450   0.360420   0.180923   x 
            x  N            3         0.037782   0.226652   0.285314   x 
            x  N            4         0.030562   0.309796   0.470540   x 
            x  N            5         0.005064   0.113600   0.403054   x 
            x  N            6         0.928512   0.023061   0.791051   x 
            x  N            7         0.940550   0.139580   0.680923   x 
            x  N            8         0.962218   0.273348   0.785314   x 
            x  N            9         0.969438   0.190204   0.970540   x 
            x  N           10         0.994936   0.386400   0.903054   x 
            x  N           11         0.928512   0.523061   0.708949   x 
            x  N           12         0.940550   0.639580   0.819077   x 
            x  N           13         0.962218   0.773348   0.714686   x 
            x  N           14         0.969438   0.690204   0.529460   x 
            x  N           15         0.994936   0.886400   0.596946   x 
            x  N           16         0.071488   0.976939   0.208949   x 
            x  N           17         0.059450   0.860420   0.319077   x 
            x  N           18         0.037782   0.726652   0.214686   x 
            x  N           19         0.030562   0.809796   0.029460   x 
            x  N           20         0.005064   0.613600   0.096946   x 
            x  O            1         0.082344   0.605316   0.395895   x 
            x  O            2         0.917656   0.894684   0.895895   x 
            x  O            3         0.917656   0.394684   0.604105   x 
            x  O            4         0.082344   0.105316   0.104105   x 
            xxxxxxxxxxxxxxxxxxxxxxxxxxxxxxxxxxxxxxxxxxxxxxxxxxxxxxxxxxxx


                         No user defined ionic velocities

                           -------------------------------
                                   Details of Species
                           -------------------------------

                               Mass of species in AMU
                                    H    1.0079400
                                    C   12.0107000
                                    N   14.0067400
                                    O   15.9994000

                          Electric Quadrupole Moment (Barn)
                                    H    0.0028600 Isotope  2
                                    C    0.0332700 Isotope 11
                                    N    0.0204400 Isotope 14
                                    O   -0.0255800 Isotope 17

                          Files used for pseudopotentials:
                                    H 1|0.8|14|16|19|10N(qc=8)
                                    C 1|1.2|17|20|23|20N:21L(qc=8)
                                    N 1|1.1|23|26|31|20N:21L(qc=9)
                                    O 1|1.2|23|26|31|20N:21L(qc=9)

                           -------------------------------
                              k-Points For BZ Sampling
                           -------------------------------
                       MP grid size for SCF calculation is  4  2  1
                            with an offset of   0.000  0.000  0.000
                       Number of kpoints used =             4

                           -------------------------------
                               Symmetry and Constraints
                           -------------------------------

                      Maximum deviation from symmetry = 0.380324E-13     ANG

                      Number of symmetry operations   =           4
         There are no ionic constraints specified or generated for this cell
                      Point group of crystal =     5: C2h, 2/m, 2/m
                      Space group of crystal =     0: , 

             Set iprint > 1 for details on symmetry rotations/translations

                         Centre of mass is NOT constrained

                         Number of cell constraints= 4
                         Cell constraints are:  1 2 3 0 0 6

                         External pressure/stress (GPa)
                          0.00000   0.00000   0.00000
                                    0.00000   0.00000
                                              0.00000
  Parallel strategy changed for perturbation using 4 k-points
  Data is distributed by G-vector(1-way) and k-point(4-way) and band(1-way)
  +---------------- MEMORY AND SCRATCH DISK ESTIMATES PER PROCESS --------------+
  |                                                     Memory          Disk    |
  | Baseline code, static data and system overhead      493.0 MB         0.0 MB |
  | BLAS internal memory storage                          0.0 MB         0.0 MB |
  | Model and support data                              181.5 MB         0.0 MB |
  | Finite displacement phonon requirements             432.6 MB         0.0 MB |
  |                                               ----------------------------- |
  | Approx. total storage required per process         1107.1 MB         0.0 MB |
  |                                                                             |
  | Requirements will fluctuate during execution and may exceed these estimates |
  +-----------------------------------------------------------------------------+

Writing analysis data to bgua.castep_bin

Writing model to bgua.check
 Perturbation    1 (of   48): H     1 X at q=( 0.000, 0.000, 0.000):   2603.34s
  Parallel strategy changed for perturbation using 4 k-points
  Data is distributed by G-vector(1-way) and k-point(4-way) and band(1-way)
 Perturbation    2 (of   48): H     1 Y at q=( 0.000, 0.000, 0.000):   2888.74s
 Perturbation    3 (of   48): H     1 Z at q=( 0.000, 0.000, 0.000):   3330.43s
 Perturbation    4 (of   48): H     2 X at q=( 0.000, 0.000, 0.000):   3726.90s
 Perturbation    5 (of   48): H     2 Y at q=( 0.000, 0.000, 0.000):   4025.33s
 Perturbation    6 (of   48): H     2 Z at q=( 0.000, 0.000, 0.000):   4424.12s
 Perturbation    7 (of   48): H     3 X at q=( 0.000, 0.000, 0.000):   4806.49s
 Perturbation    8 (of   48): H     3 Y at q=( 0.000, 0.000, 0.000):   5101.44s
 Perturbation    9 (of   48): H     3 Z at q=( 0.000, 0.000, 0.000):   5490.60s
 Perturbation   10 (of   48): H     4 X at q=( 0.000, 0.000, 0.000):   5869.38s
 Perturbation   11 (of   48): H     4 Y at q=( 0.000, 0.000, 0.000):   6186.16s
 Perturbation   12 (of   48): H     4 Z at q=( 0.000, 0.000, 0.000):   6606.36s
 Perturbation   13 (of   48): H     5 X at q=( 0.000, 0.000, 0.000):   7083.92s
 Perturbation   14 (of   48): H     5 Y at q=( 0.000, 0.000, 0.000):   7400.05s
 Perturbation   15 (of   48): H     5 Z at q=( 0.000, 0.000, 0.000):   7744.53s
 Perturbation   16 (of   48): C     1 X at q=( 0.000, 0.000, 0.000):   8085.83s
 Perturbation   17 (of   48): C     1 Y at q=( 0.000, 0.000, 0.000):   8412.63s
 Perturbation   18 (of   48): C     1 Z at q=( 0.000, 0.000, 0.000):   8819.53s
 Perturbation   19 (of   48): C     2 X at q=( 0.000, 0.000, 0.000):   9317.47s
 Perturbation   20 (of   48): C     2 Y at q=( 0.000, 0.000, 0.000):   9668.27s
 Perturbation   21 (of   48): C     2 Z at q=( 0.000, 0.000, 0.000):  10088.95s
 Perturbation   22 (of   48): C     3 X at q=( 0.000, 0.000, 0.000):  10596.85s
 Perturbation   23 (of   48): C     3 Y at q=( 0.000, 0.000, 0.000):  10924.80s
 Perturbation   24 (of   48): C     3 Z at q=( 0.000, 0.000, 0.000):  11342.07s
 Perturbation   25 (of   48): C     4 X at q=( 0.000, 0.000, 0.000):  11734.61s
 Perturbation   26 (of   48): C     4 Y at q=( 0.000, 0.000, 0.000):  12089.05s
 Perturbation   27 (of   48): C     4 Z at q=( 0.000, 0.000, 0.000):  12557.05s
 Perturbation   28 (of   48): C     5 X at q=( 0.000, 0.000, 0.000):  13042.19s
 Perturbation   29 (of   48): C     5 Y at q=( 0.000, 0.000, 0.000):  13391.30s
 Perturbation   30 (of   48): C     5 Z at q=( 0.000, 0.000, 0.000):  13824.52s
 Perturbation   31 (of   48): N     1 X at q=( 0.000, 0.000, 0.000):  14264.00s
 Perturbation   32 (of   48): N     1 Y at q=( 0.000, 0.000, 0.000):  14598.69s
 Perturbation   33 (of   48): N     1 Z at q=( 0.000, 0.000, 0.000):  14979.24s
 Perturbation   34 (of   48): N     2 X at q=( 0.000, 0.000, 0.000):  15453.06s
 Perturbation   35 (of   48): N     2 Y at q=( 0.000, 0.000, 0.000):  15802.58s
 Perturbation   36 (of   48): N     2 Z at q=( 0.000, 0.000, 0.000):  16172.26s
 Perturbation   37 (of   48): N     3 X at q=( 0.000, 0.000, 0.000):  16682.93s
 Perturbation   38 (of   48): N     3 Y at q=( 0.000, 0.000, 0.000):  17036.43s
 Perturbation   39 (of   48): N     3 Z at q=( 0.000, 0.000, 0.000):  17498.39s
 Perturbation   40 (of   48): N     4 X at q=( 0.000, 0.000, 0.000):  18007.69s
 Perturbation   41 (of   48): N     4 Y at q=( 0.000, 0.000, 0.000):  18360.60s
 Perturbation   42 (of   48): N     4 Z at q=( 0.000, 0.000, 0.000):  18803.31s
 Perturbation   43 (of   48): N     5 X at q=( 0.000, 0.000, 0.000):  19234.36s
 Perturbation   44 (of   48): N     5 Y at q=( 0.000, 0.000, 0.000):  19569.10s
 Perturbation   45 (of   48): N     5 Z at q=( 0.000, 0.000, 0.000):  19997.30s
 Perturbation   46 (of   48): O     1 X at q=( 0.000, 0.000, 0.000):  20486.28s
 Perturbation   47 (of   48): O     1 Y at q=( 0.000, 0.000, 0.000):  20872.00s
 Perturbation   48 (of   48): O     1 Z at q=( 0.000, 0.000, 0.000):  21382.26s
 
 ==============================================================================
 +                           Vibrational Frequencies                          +
 +                           -----------------------                          +
 +                                                                            +
 + Performing frequency calculation at  22 wavevectors (q-pts)                +
 + ========================================================================== +
 +                                                                            +
 + -------------------------------------------------------------------------- +
 +  q-pt=    1 ( -0.454545 -0.375000 -0.250000)     0.0454545455              +
 + -------------------------------------------------------------------------- +
 +  Acoustic sum rule correction <   2.839798 cm-1 applied                    +
 +     N      Frequency irrep.                                                + 
 +                (cm-1)                                                      + 
 +                                                                            +
 +     1     -81.206110   a                                                   + 
 +     2     -35.604544   a                                                   + 
 +     3      28.622275   a                                                   + 
 +     4      32.179490   a                                                   + 
 +     5      36.674952   a                                                   + 
 +     6      41.119028   a                                                   + 
 +     7      62.606991   a                                                   + 
 +     8      65.621709   a                                                   + 
 +     9      66.902662   a                                                   + 
 +    10      71.552241   a                                                   + 
 +    11      82.113201   a                                                   + 
 +    12      95.592335   a                                                   + 
 +    13     107.183945   a                                                   + 
 +    14     108.021914   a                                                   + 
 +    15     114.262306   a                                                   + 
 +    16     119.904701   a                                                   + 
 +    17     121.104476   a                                                   + 
 +    18     127.165754   a                                                   + 
 +    19     127.926076   a                                                   + 
 +    20     134.210994   a                                                   + 
 +    21     154.637070   a                                                   + 
 +    22     155.073477   a                                                   + 
 +    23     161.511109   a                                                   + 
 +    24     163.098375   a                                                   + 
 +    25     164.709533   a                                                   + 
 +    26     168.660463   a                                                   + 
 +    27     182.047283   a                                                   + 
 +    28     193.527820   a                                                   + 
 +    29     217.175727   a                                                   + 
 +    30     218.393015   a                                                   + 
 +    31     225.657060   a                                                   + 
 +    32     226.695328   a                                                   + 
 +    33     249.637366   a                                                   + 
 +    34     250.877298   a                                                   + 
 +    35     251.369094   a                                                   + 
 +    36     251.677803   a                                                   + 
 +    37     337.537523   a                                                   + 
 +    38     342.575153   a                                                   + 
 +    39     353.306167   a                                                   + 
 +    40     354.098772   a                                                   + 
 +    41     355.415880   a                                                   + 
 +    42     356.499141   a                                                   + 
 +    43     368.771454   a                                                   + 
 +    44     375.468539   a                                                   + 
 +    45     398.410218   a                                                   + 
 +    46     402.817368   a                                                   + 
 +    47     412.651006   a                                                   + 
 +    48     414.454090   a                                                   + 
 +    49     485.167700   a                                                   + 
 +    50     489.118435   a                                                   + 
 +    51     506.174649   a                                                   + 
 +    52     507.838104   a                                                   + 
 +    53     542.722500   a                                                   + 
 +    54     543.931520   a                                                   + 
 +    55     547.973743   a                                                   + 
 +    56     550.382559   a                                                   + 
 +    57     587.192858   a                                                   + 
 +    58     587.387921   a                                                   + 
 +    59     594.801868   a                                                   + 
 +    60     594.914310   a                                                   + 
 +    61     605.216385   a                                                   + 
 +    62     605.704506   a                                                   + 
 +    63     617.284958   a                                                   + 
 +    64     617.460272   a                                                   + 
 +    65     635.202796   a                                                   + 
 +    66     637.375705   a                                                   + 
 +    67     641.294706   a                                                   + 
 +    68     642.540576   a                                                   + 
 +    69     675.266728   a                                                   + 
 +    70     676.691745   a                                                   + 
 +    71     678.213105   a                                                   + 
 +    72     679.174073   a                                                   + 
 +    73     683.476249   a                                                   + 
 +    74     689.387602   a                                                   + 
 +    75     699.278951   a                                                   + 
 +    76     702.370361   a                                                   + 
 +    77     703.293448   a                                                   + 
 +    78     703.982093   a                                                   + 
 +    79     704.483644   a                                                   + 
 +    80     705.255404   a                                                   + 
 +    81     746.250823   a                                                   + 
 +    82     746.544732   a                                                   + 
 +    83     747.123713   a                                                   + 
 +    84     747.481548   a                                                   + 
 +    85     763.300201   a                                                   + 
 +    86     763.361224   a                                                   + 
 +    87     764.107143   a                                                   + 
 +    88     764.230106   a                                                   + 
 +    89     827.203123   a                                                   + 
 +    90     827.413072   a                                                   + 
 +    91     828.139714   a                                                   + 
 +    92     829.550262   a                                                   + 
 +    93     833.222200   a                                                   + 
 +    94     833.248882   a                                                   + 
 +    95     838.296560   a                                                   + 
 +    96     839.332489   a                                                   + 
 +    97     875.453806   a                                                   + 
 +    98     875.590580   a                                                   + 
 +    99     882.739496   a                                                   + 
 +   100     882.851628   a                                                   + 
 +   101     923.121080   a                                                   + 
 +   102     923.595342   a                                                   + 
 +   103     927.123968   a                                                   + 
 +   104     927.177235   a                                                   + 
 +   105     949.775167   a                                                   + 
 +   106     950.295242   a                                                   + 
 +   107     951.538562   a                                                   + 
 +   108     952.105604   a                                                   + 
 +   109    1039.939876   a                                                   + 
 +   110    1042.659037   a                                                   + 
 +   111    1048.760039   a                                                   + 
 +   112    1051.127987   a                                                   + 
 +   113    1106.305281   a                                                   + 
 +   114    1107.056251   a                                                   + 
 +   115    1109.065239   a                                                   + 
 +   116    1110.243350   a                                                   + 
 +   117    1148.454136   a                                                   + 
 +   118    1149.576425   a                                                   + 
 +   119    1155.790441   a                                                   + 
 +   120    1157.953711   a                                                   + 
 +   121    1173.388514   a                                                   + 
 +   122    1173.798448   a                                                   + 
 +   123    1188.707052   a                                                   + 
 +   124    1188.763418   a                                                   + 
 +   125    1214.564274   a                                                   + 
 +   126    1215.198453   a                                                   + 
 +   127    1233.947388   a                                                   + 
 +   128    1234.538079   a                                                   + 
 +   129    1255.691893   a                                                   + 
 +   130    1258.144528   a                                                   + 
 +   131    1263.422782   a                                                   + 
 +   132    1265.796135   a                                                   + 
 +   133    1353.370458   a                                                   + 
 +   134    1353.779704   a                                                   + 
 +   135    1354.226003   a                                                   + 
 +   136    1355.611097   a                                                   + 
 +   137    1363.342471   a                                                   + 
 +   138    1365.379856   a                                                   + 
 +   139    1368.293688   a                                                   + 
 +   140    1370.376890   a                                                   + 
 +   141    1422.086955   a                                                   + 
 +   142    1423.233807   a                                                   + 
 +   143    1427.622695   a                                                   + 
 +   144    1428.022869   a                                                   + 
 +   145    1443.520741   a                                                   + 
 +   146    1444.481591   a                                                   + 
 +   147    1447.681152   a                                                   + 
 +   148    1448.117805   a                                                   + 
 +   149    1471.400568   a                                                   + 
 +   150    1472.128764   a                                                   + 
 +   151    1475.318113   a                                                   + 
 +   152    1475.577968   a                                                   + 
 +   153    1518.893518   a                                                   + 
 +   154    1521.785966   a                                                   + 
 +   155    1529.336028   a                                                   + 
 +   156    1530.264830   a                                                   + 
 +   157    1533.815779   a                                                   + 
 +   158    1534.476717   a                                                   + 
 +   159    1536.344269   a                                                   + 
 +   160    1536.771291   a                                                   + 
 +   161    1603.264797   a                                                   + 
 +   162    1604.418597   a                                                   + 
 +   163    1608.866961   a                                                   + 
 +   164    1609.027677   a                                                   + 
 +   165    1647.601722   a                                                   + 
 +   166    1649.152168   a                                                   + 
 +   167    1652.892715   a                                                   + 
 +   168    1653.289346   a                                                   + 
 +   169    1660.052059   a                                                   + 
 +   170    1660.340072   a                                                   + 
 +   171    1661.972231   a                                                   + 
 +   172    1662.347863   a                                                   + 
 +   173    2765.233161   a                                                   + 
 +   174    2765.648445   a                                                   + 
 +   175    2785.103510   a                                                   + 
 +   176    2785.455999   a                                                   + 
 +   177    2928.294454   a                                                   + 
 +   178    2928.579650   a                                                   + 
 +   179    2941.904111   a                                                   + 
 +   180    2942.599590   a                                                   + 
 +   181    3160.459945   a                                                   + 
 +   182    3160.818916   a                                                   + 
 +   183    3162.468020   a                                                   + 
 +   184    3162.601394   a                                                   + 
 +   185    3172.752950   a                                                   + 
 +   186    3174.212074   a                                                   + 
 +   187    3176.955096   a                                                   + 
 +   188    3177.585560   a                                                   + 
 +   189    3292.558812   a                                                   + 
 +   190    3293.029898   a                                                   + 
 +   191    3295.817530   a                                                   + 
 +   192    3296.478092   a                                                   + 
 + .......................................................................... +
 +        Character table from group theory analysis of eigenvectors          +
 +                           Point Group =   5, C2h                           +
 + .......................................................................... +
 +  Rep  Mul |    E                                                           +
 +           | ----                                                           +
 + a     192 |    1                                                           +
 + -------------------------------------------------------------------------- +
 +  q-pt=    2 ( -0.454545  0.125000  0.250000)     0.0454545455              +
 + -------------------------------------------------------------------------- +
 +  Acoustic sum rule correction <   2.807388 cm-1 applied                    +
 +     N      Frequency irrep.                                                + 
 +                (cm-1)                                                      + 
 +                                                                            +
 +     1    -100.302548   a                                                   + 
 +     2     -71.995150   a                                                   + 
 +     3     -14.430157   a                                                   + 
 +     4      22.693131   a                                                   + 
 +     5      29.954010   a                                                   + 
 +     6      32.957158   a                                                   + 
 +     7      64.186893   a                                                   + 
 +     8      68.115381   a                                                   + 
 +     9      72.547299   a                                                   + 
 +    10      77.456215   a                                                   + 
 +    11      86.239670   a                                                   + 
 +    12      88.359216   a                                                   + 
 +    13     104.175795   a                                                   + 
 +    14     108.281421   a                                                   + 
 +    15     112.275827   a                                                   + 
 +    16     117.558304   a                                                   + 
 +    17     123.937085   a                                                   + 
 +    18     126.536487   a                                                   + 
 +    19     131.986209   a                                                   + 
 +    20     140.619177   a                                                   + 
 +    21     153.323600   a                                                   + 
 +    22     155.995005   a                                                   + 
 +    23     156.999487   a                                                   + 
 +    24     160.892070   a                                                   + 
 +    25     162.579391   a                                                   + 
 +    26     168.503610   a                                                   + 
 +    27     190.824441   a                                                   + 
 +    28     196.484294   a                                                   + 
 +    29     220.066105   a                                                   + 
 +    30     221.874707   a                                                   + 
 +    31     228.224102   a                                                   + 
 +    32     229.602277   a                                                   + 
 +    33     247.273916   a                                                   + 
 +    34     247.991644   a                                                   + 
 +    35     252.488329   a                                                   + 
 +    36     253.918735   a                                                   + 
 +    37     338.367837   a                                                   + 
 +    38     345.458356   a                                                   + 
 +    39     351.771649   a                                                   + 
 +    40     353.026441   a                                                   + 
 +    41     356.331690   a                                                   + 
 +    42     357.846750   a                                                   + 
 +    43     359.922639   a                                                   + 
 +    44     371.847485   a                                                   + 
 +    45     392.967252   a                                                   + 
 +    46     400.887228   a                                                   + 
 +    47     419.495814   a                                                   + 
 +    48     422.058919   a                                                   + 
 +    49     482.720280   a                                                   + 
 +    50     492.431435   a                                                   + 
 +    51     506.546624   a                                                   + 
 +    52     511.214662   a                                                   + 
 +    53     536.347822   a                                                   + 
 +    54     539.470405   a                                                   + 
 +    55     551.415638   a                                                   + 
 +    56     554.465499   a                                                   + 
 +    57     588.040941   a                                                   + 
 +    58     589.149051   a                                                   + 
 +    59     593.858173   a                                                   + 
 +    60     594.321437   a                                                   + 
 +    61     604.232503   a                                                   + 
 +    62     606.942817   a                                                   + 
 +    63     617.061142   a                                                   + 
 +    64     618.861048   a                                                   + 
 +    65     634.721578   a                                                   + 
 +    66     636.655721   a                                                   + 
 +    67     642.964806   a                                                   + 
 +    68     644.118739   a                                                   + 
 +    69     674.163978   a                                                   + 
 +    70     674.809892   a                                                   + 
 +    71     676.789857   a                                                   + 
 +    72     678.159952   a                                                   + 
 +    73     678.877789   a                                                   + 
 +    74     682.228606   a                                                   + 
 +    75     702.657256   a                                                   + 
 +    76     703.049927   a                                                   + 
 +    77     704.086713   a                                                   + 
 +    78     704.581937   a                                                   + 
 +    79     707.039920   a                                                   + 
 +    80     713.188389   a                                                   + 
 +    81     746.140056   a                                                   + 
 +    82     746.396752   a                                                   + 
 +    83     748.075252   a                                                   + 
 +    84     748.676155   a                                                   + 
 +    85     762.420799   a                                                   + 
 +    86     762.468819   a                                                   + 
 +    87     764.566746   a                                                   + 
 +    88     764.699281   a                                                   + 
 +    89     822.191701   a                                                   + 
 +    90     824.153350   a                                                   + 
 +    91     826.042296   a                                                   + 
 +    92     826.437899   a                                                   + 
 +    93     834.994794   a                                                   + 
 +    94     835.106559   a                                                   + 
 +    95     843.820426   a                                                   + 
 +    96     844.618019   a                                                   + 
 +    97     874.704127   a                                                   + 
 +    98     874.821501   a                                                   + 
 +    99     882.823016   a                                                   + 
 +   100     883.136822   a                                                   + 
 +   101     923.998196   a                                                   + 
 +   102     924.507445   a                                                   + 
 +   103     926.030576   a                                                   + 
 +   104     926.898518   a                                                   + 
 +   105     949.738435   a                                                   + 
 +   106     950.424278   a                                                   + 
 +   107     952.098475   a                                                   + 
 +   108     952.156291   a                                                   + 
 +   109    1034.103263   a                                                   + 
 +   110    1037.070631   a                                                   + 
 +   111    1052.918260   a                                                   + 
 +   112    1054.903106   a                                                   + 
 +   113    1106.289879   a                                                   + 
 +   114    1106.745732   a                                                   + 
 +   115    1108.706653   a                                                   + 
 +   116    1109.857272   a                                                   + 
 +   117    1146.650799   a                                                   + 
 +   118    1148.130260   a                                                   + 
 +   119    1155.166063   a                                                   + 
 +   120    1157.843895   a                                                   + 
 +   121    1175.385379   a                                                   + 
 +   122    1175.894575   a                                                   + 
 +   123    1188.599168   a                                                   + 
 +   124    1188.887055   a                                                   + 
 +   125    1214.142397   a                                                   + 
 +   126    1216.095148   a                                                   + 
 +   127    1233.135213   a                                                   + 
 +   128    1234.346873   a                                                   + 
 +   129    1255.694451   a                                                   + 
 +   130    1259.214251   a                                                   + 
 +   131    1263.913301   a                                                   + 
 +   132    1266.861847   a                                                   + 
 +   133    1353.108290   a                                                   + 
 +   134    1353.934527   a                                                   + 
 +   135    1354.845331   a                                                   + 
 +   136    1355.549764   a                                                   + 
 +   137    1360.903764   a                                                   + 
 +   138    1363.658736   a                                                   + 
 +   139    1370.111073   a                                                   + 
 +   140    1372.856458   a                                                   + 
 +   141    1419.404116   a                                                   + 
 +   142    1419.902584   a                                                   + 
 +   143    1427.560662   a                                                   + 
 +   144    1428.292535   a                                                   + 
 +   145    1442.576061   a                                                   + 
 +   146    1444.802242   a                                                   + 
 +   147    1448.414364   a                                                   + 
 +   148    1449.538573   a                                                   + 
 +   149    1470.290260   a                                                   + 
 +   150    1473.299293   a                                                   + 
 +   151    1474.619255   a                                                   + 
 +   152    1476.662550   a                                                   + 
 +   153    1516.996353   a                                                   + 
 +   154    1523.088104   a                                                   + 
 +   155    1528.287863   a                                                   + 
 +   156    1530.874336   a                                                   + 
 +   157    1533.734642   a                                                   + 
 +   158    1534.564793   a                                                   + 
 +   159    1536.551731   a                                                   + 
 +   160    1537.078978   a                                                   + 
 +   161    1606.241347   a                                                   + 
 +   162    1606.305619   a                                                   + 
 +   163    1608.807561   a                                                   + 
 +   164    1613.116084   a                                                   + 
 +   165    1642.382487   a                                                   + 
 +   166    1646.821078   a                                                   + 
 +   167    1652.448882   a                                                   + 
 +   168    1653.928798   a                                                   + 
 +   169    1659.819206   a                                                   + 
 +   170    1660.615886   a                                                   + 
 +   171    1661.080346   a                                                   + 
 +   172    1662.410522   a                                                   + 
 +   173    2753.134851   a                                                   + 
 +   174    2753.393184   a                                                   + 
[...]
  N              18     1.52   3.98   0.00   0.00   5.50    -0.50
  N              19     1.46   4.04   0.00   0.00   5.50    -0.50
  N              20     1.58   3.91   0.00   0.00   5.49    -0.49
  O               1     1.81   4.84   0.00   0.00   6.64    -0.64
  O               2     1.81   4.84   0.00   0.00   6.64    -0.64
  O               3     1.81   4.84   0.00   0.00   6.64    -0.64
  O               4     1.81   4.84   0.00   0.00   6.64    -0.64
=====================================================================

                 Bond                   Population      Length (A)
======================================================================
              H 13 -- N 12                   0.66        1.02610
              H 3  -- N 2                    0.66        1.02610
              H 8  -- N 7                    0.66        1.02610
              H 18 -- N 17                   0.66        1.02610
              H 7  -- N 7                    0.67        1.02887
              H 12 -- N 12                   0.67        1.02887
              H 2  -- N 2                    0.67        1.02887
              H 17 -- N 17                   0.67        1.02887
              H 9  -- N 9                    0.62        1.04558
              H 14 -- N 14                   0.62        1.04558
              H 4  -- N 4                    0.62        1.04558
              H 19 -- N 19                   0.62        1.04558
              H 16 -- N 16                   0.64        1.05540
              H 11 -- N 11                   0.64        1.05540
              H 6  -- N 6                    0.64        1.05540
              H 1  -- N 1                    0.64        1.05540
              H 10 -- C 10                   0.87        1.08510
              H 15 -- C 15                   0.87        1.08510
              H 5  -- C 5                    0.87        1.08510
              H 20 -- C 20                   0.87        1.08510
              C 19 -- O 4                    0.93        1.26915
              C 9  -- O 2                    0.93        1.26915
              C 14 -- O 3                    0.93        1.26915
              C 4  -- O 1                    0.93        1.26915
              C 20 -- N 20                   1.04        1.34041
              C 10 -- N 10                   1.04        1.34041
              C 15 -- N 15                   1.04        1.34041
              C 5  -- N 5                    1.04        1.34041
              C 6  -- N 7                    0.92        1.34090
              C 16 -- N 17                   0.92        1.34090
              C 11 -- N 12                   0.92        1.34090
              C 1  -- N 2                    0.92        1.34090
              C 16 -- N 18                   1.04        1.34357
              C 11 -- N 13                   1.04        1.34357
              C 1  -- N 3                    1.04        1.34357
              C 6  -- N 8                    1.04        1.34357
              C 20 -- N 19                   0.94        1.35510
              C 15 -- N 14                   0.94        1.35510
              C 5  -- N 4                    0.94        1.35510
              C 10 -- N 9                    0.94        1.35510
              C 7  -- N 8                    0.91        1.35675
              C 17 -- N 18                   0.91        1.35675
              C 12 -- N 13                   0.91        1.35675
              C 2  -- N 3                    0.91        1.35675
              C 12 -- N 15                   0.92        1.37930
              C 2  -- N 5                    0.92        1.37930
              C 17 -- N 20                   0.92        1.37930
              C 7  -- N 10                   0.92        1.37930
              C 13 -- N 14                   0.86        1.38255
              C 3  -- N 4                    0.86        1.38255
              C 18 -- N 19                   0.86        1.38255
              C 8  -- N 9                    0.86        1.38255
              C 11 -- N 11                   0.86        1.38564
              C 1  -- N 1                    0.86        1.38564
              C 6  -- N 6                    0.86        1.38564
              C 16 -- N 16                   0.86        1.38564
              C 19 -- N 16                   0.83        1.39219
              C 14 -- N 11                   0.83        1.39219
              C 4  -- N 1                    0.83        1.39219
              C 9  -- N 6                    0.83        1.39219
              C 17 -- C 18                   1.13        1.40361
              C 12 -- C 13                   1.13        1.40361
              C 2  -- C 3                    1.13        1.40361
              C 7  -- C 8                    1.13        1.40361
              C 13 -- C 14                   1.00        1.41227
              C 8  -- C 9                    1.00        1.41227
              C 3  -- C 4                    1.00        1.41227
              C 18 -- C 19                   1.00        1.41227
              H 19 -- O 2                    0.12        1.69776
              H 14 -- O 1                    0.12        1.69776
              H 4  -- O 3                    0.12        1.69776
              H 9  -- O 4                    0.12        1.69776
              H 17 -- H 18                  -0.08        1.77727
              H 12 -- H 13                  -0.08        1.77727
              H 7  -- H 8                   -0.08        1.77727
              H 2  -- H 3                   -0.08        1.77727
              H 16 -- N 3                    0.14        1.82537
              H 11 -- N 8                    0.14        1.82537
              H 6  -- N 13                   0.14        1.82537
              H 1  -- N 18                   0.14        1.82537
              H 8  -- O 3                    0.07        1.88631
              H 18 -- O 1                    0.07        1.88631
              H 13 -- O 2                    0.07        1.88631
              H 3  -- O 4                    0.07        1.88631
              H 17 -- N 5                    0.08        1.98620
              H 12 -- N 10                   0.08        1.98620
              H 2  -- N 20                   0.08        1.98620
              H 7  -- N 15                   0.08        1.98620
              H 3  -- C 1                   -0.15        2.02678
              H 13 -- C 11                  -0.15        2.02678
              H 18 -- C 16                  -0.15        2.02678
              H 8  -- C 6                   -0.15        2.02678
              H 1  -- C 4                   -0.14        2.08578
              H 11 -- C 14                  -0.14        2.08578
              H 16 -- C 19                  -0.14        2.08578
              H 6  -- C 9                   -0.14        2.08578
              H 7  -- C 6                   -0.12        2.08819
              H 12 -- C 11                  -0.12        2.08819
              H 17 -- C 16                  -0.12        2.08819
              H 2  -- C 1                   -0.12        2.08819
              H 6  -- C 6                   -0.12        2.10948
              H 11 -- C 11                  -0.12        2.10948
              H 1  -- C 1                   -0.12        2.10948
              H 16 -- C 16                  -0.12        2.10948
              H 14 -- C 15                  -0.12        2.12291
              H 4  -- C 5                   -0.12        2.12291
              H 9  -- C 10                  -0.12        2.12291
              H 19 -- C 20                  -0.12        2.12291
              H 10 -- N 9                   -0.13        2.13062
              H 20 -- N 19                  -0.13        2.13062
              H 5  -- N 4                   -0.13        2.13062
              H 15 -- N 14                  -0.13        2.13062
              C 17 -- C 20                  -0.41        2.14561
              C 2  -- C 5                   -0.41        2.14561
              C 12 -- C 15                  -0.41        2.14561
              C 7  -- C 10                  -0.41        2.14561
              H 10 -- N 10                  -0.10        2.15435
              H 5  -- N 5                   -0.10        2.15435
              H 20 -- N 20                  -0.10        2.15435
              H 15 -- N 15                  -0.10        2.15435
              C 18 -- C 20                  -0.43        2.18655
              C 8  -- C 10                  -0.43        2.18655
              C 3  -- C 5                   -0.43        2.18655
              C 13 -- C 15                  -0.43        2.18655
              H 9  -- C 8                   -0.09        2.20328
              H 14 -- C 13                  -0.09        2.20328
              H 4  -- C 3                   -0.09        2.20328
              H 19 -- C 18                  -0.09        2.20328
              H 10 -- H 20                  -0.05        2.22167
              H 5  -- H 15                  -0.05        2.22167
              C 17 -- N 19                  -0.30        2.22638
              C 12 -- N 14                  -0.30        2.22638
              C 2  -- N 4                   -0.30        2.22638
              C 7  -- N 9                   -0.30        2.22638
              N 19 -- N 20                  -0.25        2.25783
              N 4  -- N 5                   -0.25        2.25783
              N 14 -- N 15                  -0.25        2.25783
              N 9  -- N 10                  -0.25        2.25783
              C 1  -- C 2                   -0.29        2.27202
              C 16 -- C 17                  -0.29        2.27202
              C 11 -- C 12                  -0.29        2.27202
              C 6  -- C 7                   -0.29        2.27202
              C 18 -- N 20                  -0.29        2.27919
              C 13 -- N 15                  -0.29        2.27919
              C 3  -- N 5                   -0.29        2.27919
              C 8  -- N 10                  -0.29        2.27919
              N 16 -- O 4                   -0.18        2.30816
              N 6  -- O 2                   -0.18        2.30816
              N 11 -- O 3                   -0.18        2.30816
              N 1  -- O 1                   -0.18        2.30816
              N 17 -- N 18                  -0.22        2.32022
              N 12 -- N 13                  -0.22        2.32022
              N 7  -- N 8                   -0.22        2.32022
              N 2  -- N 3                   -0.22        2.32022
              C 13 -- N 11                  -0.25        2.32678
              C 8  -- N 6                   -0.25        2.32678
              C 3  -- N 1                   -0.25        2.32678
              C 18 -- N 16                  -0.25        2.32678
              H 11 -- H 12                  -0.01        2.32825
              H 6  -- H 7                   -0.01        2.32825
              H 1  -- H 2                   -0.01        2.32825
              H 16 -- H 17                  -0.01        2.32825
              N 16 -- N 17                  -0.20        2.33271
              N 11 -- N 12                  -0.20        2.33271
              N 6  -- N 7                   -0.20        2.33271
              N 1  -- N 2                   -0.20        2.33271
              N 6  -- N 8                   -0.16        2.39579
              N 11 -- N 13                  -0.16        2.39579
              N 1  -- N 3                   -0.16        2.39579
              N 16 -- N 18                  -0.16        2.39579
              C 18 -- O 4                   -0.19        2.40726
              C 13 -- O 3                   -0.19        2.40726
              C 8  -- O 2                   -0.19        2.40726
              C 3  -- O 1                   -0.19        2.40726
              N 13 -- N 15                  -0.15        2.42851
              N 3  -- N 5                   -0.15        2.42851
              N 18 -- N 20                  -0.15        2.42851
              N 8  -- N 10                  -0.15        2.42851
              C 13 -- N 13                  -0.18        2.44735
              C 8  -- N 8                   -0.18        2.44735
              C 3  -- N 3                   -0.18        2.44735
              C 18 -- N 18                  -0.18        2.44735
              C 12 -- C 14                  -0.16        2.44942
              C 2  -- C 4                   -0.16        2.44942
              C 7  -- C 9                   -0.16        2.44942
              C 17 -- C 19                  -0.16        2.44942
              C 11 -- C 14                  -0.18        2.46123
              C 1  -- C 4                   -0.18        2.46123
              C 16 -- C 19                  -0.18        2.46123
              C 6  -- C 9                   -0.18        2.46123
              H 13 -- N 13                  -0.03        2.48689
              H 18 -- N 18                  -0.03        2.48689
              H 3  -- N 3                   -0.03        2.48689
              H 8  -- N 8                   -0.03        2.48689
              H 16 -- O 4                   -0.02        2.50227
              H 6  -- O 2                   -0.02        2.50227
              H 1  -- O 1                   -0.02        2.50227
              H 11 -- O 3                   -0.02        2.50227
              H 19 -- H 20                  -0.03        2.50260
              H 14 -- H 15                  -0.03        2.50260
              H 4  -- H 5                   -0.03        2.50260
              H 9  -- H 10                  -0.03        2.50260
              H 3  -- H 16                  -0.01        2.52453
              H 6  -- H 13                  -0.01        2.52453
              H 1  -- H 18                  -0.01        2.52453
              H 8  -- H 11                  -0.01        2.52453
              H 16 -- N 17                  -0.04        2.53293
              H 11 -- N 12                  -0.04        2.53293
              H 6  -- N 7                   -0.04        2.53293
              H 1  -- N 2                   -0.04        2.53293
              H 15 -- H 17                  -0.02        2.54166
              H 12 -- H 20                  -0.02        2.54166
              H 5  -- H 7                   -0.02        2.54166
              H 2  -- H 10                  -0.02        2.54166
              C 14 -- N 14                  -0.12        2.56334
              C 4  -- N 4                   -0.12        2.56334
              C 19 -- N 19                  -0.12        2.56334
              C 9  -- N 9                   -0.12        2.56334
              H 7  -- N 6                   -0.04        2.57233
              H 12 -- N 11                  -0.04        2.57233
              H 2  -- N 1                   -0.04        2.57233
              H 17 -- N 16                  -0.04        2.57233
              H 20 -- N 10                   0.00        2.59806
              H 15 -- N 5                    0.00        2.59806
              H 5  -- N 15                   0.00        2.59806
              H 10 -- N 20                   0.00        2.59806
              C 7  -- N 6                   -0.09        2.65853
              C 12 -- N 11                  -0.09        2.65853
              C 2  -- N 1                   -0.09        2.65853
              C 17 -- N 16                  -0.09        2.65853
              H 20 -- C 10                  -0.05        2.68836
              H 15 -- C 5                   -0.05        2.68836
              H 5  -- C 15                  -0.05        2.68836
              H 10 -- C 20                  -0.05        2.68836
              H 19 -- C 9                   -0.04        2.70237
              H 14 -- C 4                   -0.04        2.70237
              H 4  -- C 14                  -0.04        2.70237
              H 9  -- C 19                  -0.04        2.70237
              N 9  -- O 4                   -0.13        2.71001
              N 14 -- O 1                   -0.13        2.71001
              N 4  -- O 3                   -0.13        2.71001
              N 19 -- O 2                   -0.13        2.71001
              C 16 -- C 18                  -0.11        2.71938
              C 11 -- C 13                  -0.11        2.71938
              C 1  -- C 3                   -0.11        2.71938
              C 6  -- C 8                   -0.11        2.71938
              H 9  -- H 19                  -0.01        2.75671
              H 4  -- H 14                  -0.01        2.75671
              H 11 -- C 7                   -0.03        2.78090
              H 16 -- C 2                   -0.03        2.78090
              H 1  -- C 17                  -0.03        2.78090
              H 6  -- C 12                  -0.03        2.78090
              H 12 -- C 7                   -0.05        2.78935
              H 7  -- C 12                  -0.05        2.78935
              H 17 -- C 2                   -0.05        2.78935
              H 2  -- C 17                  -0.05        2.78935
              H 13 -- H 19                  -0.01        2.80069
              H 4  -- H 8                   -0.01        2.80069
              H 14 -- H 18                  -0.01        2.80069
              H 3  -- H 9                   -0.01        2.80069
              H 16 -- C 1                   -0.03        2.80780
              H 1  -- C 16                  -0.03        2.80780
              H 6  -- C 11                  -0.03        2.80780
              H 11 -- C 6                   -0.03        2.80780
              H 3  -- C 19                  -0.04        2.81087
              H 8  -- C 14                  -0.04        2.81087
              H 18 -- C 4                   -0.04        2.81087
              H 13 -- C 9                   -0.04        2.81087
              H 5  -- H 8                   -0.01        2.81792
              H 15 -- H 18                  -0.01        2.81792
              H 13 -- H 20                  -0.01        2.81792
              H 3  -- H 10                  -0.01        2.81792
              N 3  -- N 16                  -0.15        2.87935
              N 6  -- N 13                  -0.15        2.87935
              N 8  -- N 11                  -0.15        2.87935
              N 1  -- N 18                  -0.15        2.87935
              C 14 -- N 13                  -0.06        2.90632
              C 4  -- N 3                   -0.06        2.90632
              C 9  -- N 8                   -0.06        2.90632
              C 19 -- N 18                  -0.06        2.90632
              N 12 -- O 2                   -0.08        2.91190
              N 7  -- O 3                   -0.08        2.91190
              N 2  -- O 4                   -0.08        2.91190
              N 17 -- O 1                   -0.08        2.91190
              H 17 -- N 3                   -0.01        2.96194
              H 7  -- N 13                  -0.01        2.96194
              H 2  -- N 18                  -0.01        2.96194
              H 12 -- N 8                   -0.01        2.96194
======================================================================


Writing analysis data to bgua.castep_bin

Writing model to bgua.check
 
 A BibTeX formatted list of references used in this run has been written to 
 bgua.bib
 
Initialisation time =      5.86 s
Calculation time    =  22318.73 s
Finalisation time   =      1.85 s
Total time          =  22326.45 s
Peak Memory Use     = 1546728 kB
  
Overall parallel efficiency rating: Excellent (98%)                             
  
Data was distributed by:-
k-point (4-way); efficiency rating: Excellent (99%)                             
