 +-------------------------------------------------+
 |                                                 |
 |      CCC   AA    SSS  TTTTT  EEEEE  PPPP        |
 |     C     A  A  S       T    E      P   P       |
 |     C     AAAA   SS     T    EEE    PPPP        |
 |     C     A  A     S    T    E      P           |
 |      CCC  A  A  SSS     T    EEEEE  P           |
 |                                                 |
 +-------------------------------------------------+
 |                                                 |
 | Welcome to Academic Release CASTEP version 20.1 |          
 | Ab Initio Total Energy Program                  |
 |                                                 |
 | Authors:                                        |
 | M. Segall, M. Probert, C. Pickard, P. Hasnip,   |
 | S. Clark, K. Refson, J. R. Yates, M. Payne      |
 |                                                 |
 | Contributors:                                   |
 | P. Lindan, P. Haynes, J. White, V. Milman,      |
 | N. Govind, M. Gibson, P. Tulip, V. Cocula,      |
 | B. Montanari, D. Quigley, M. Glover,            |
 | L. Bernasconi, A. Perlov, M. Plummer,           |
 | E. McNellis, J. Meyer, J. Gale, D. Jochym       |
 | J. Aarons, B. Walker, R. Gillen, D. Jones       |
 | T. Green, I. J. Bush, C. J. Armstrong,          |
 | E. J. Higgins, E. L. Brown, M. S. McFly,        |
 | J. Wilkins, B-C. Shih, P. J. P. Byrne,          |
 | R. J. Maurer, J. C. Womack, A. Bartok-Partay    |
 |                                                 |
 | Copyright (c) 2000 - 2019                       |
 |                                                 |
 |     Distributed under the terms of an           |
 |     Agreement between the United Kingdom        |
 |     Car-Parrinello (UKCP) Consortium,           |
 |     Daresbury Laboratory and Accelrys, Inc.     |
 |                                                 |
 | Please cite                                     |
 |                                                 |
 |     "First principles methods using CASTEP"     |
 |                                                 |
 |         Zeitschrift fuer Kristallographie       |
 |           220(5-6) pp. 567-570 (2005)           |
 |                                                 |
 | S. J. Clark, M. D. Segall, C. J. Pickard,       |
 | P. J. Hasnip, M. J. Probert, K. Refson,         |
 | M. C. Payne                                     |
 |                                                 |
 |       in all publications arising from          |
 |              your use of CASTEP                 |
 |                                                 |
 +-------------------------------------------------+
 |                                                 |
 |              http://www.castep.org              |
 |                                                 |
 +-------------------------------------------------+
 
 
 
 Compiled for linux_x86_64_ifort19-TCM on Fri, 28 Feb 2020 15:33:42 +0000
 from code version 2a5dedc78ce6+  Mon, 11 Nov 2019 19:16:38 +0000
 Compiler: Intel Fortran 19.1.0.166; Optimisation: fast
 MATHLIBS: Intel MKL(2020.0.0) (LAPACK version 3.7.0)
 FFT Lib : mkl
 Fundamental constants values: CODATA 2014
 
 Run started: Wed, 16 Nov 2022 13:29:58 +0000
 
 Atomic calculation performed for Na: 1s2 2s2 2p6 3s1
 
 Converged in 65 iterations to an ae energy of -4418.769 eV
 
   ============================================================                
   | Pseudopotential Report - Date of generation 16-11-2022   |                
   ------------------------------------------------------------                
   | Element: Na Ionic charge:  9.00 Level of theory: PBE     |                
   | Atomic Solver: Koelling-Harmon                           |                
   |                                                          |                
   |               Reference Electronic Structure             |                
   |         Orbital         Occupation         Energy        |                
   |            2s              2.000           -2.086        |                
   |            2p              6.000           -1.054        |                
   |            3s              1.000           -0.101        |                
   |                                                          |                
   |                 Pseudopotential Definition               |                
   |        Beta     l      e      Rc     scheme   norm       |                
   |          1      0   -2.086   1.297     qc      0         |                
   |          2      0   -0.101   1.297     qc      0         |                
   |          3      0    0.250   1.297     qc      0         |                
   |          4      1   -1.054   1.297     qc      0         |                
   |          5      1    0.250   1.297     qc      0         |                
   |         loc     2    0.000   1.297     pn      0         |                
   |                                                          |                
   | Augmentation charge Rinner = 0.907                       |                
   | Partial core correction Rc = 0.907                       |                
   ------------------------------------------------------------                
   | "2|1.3|14|16|18|20U:30:21(qc=7)"                         |                
   ------------------------------------------------------------                
   |      Author: Chris J. Pickard, Cambridge University      |                
   ============================================================                
 
 Atomic calculation performed for Ge:exc: 1s1 2s2 2p6 3s2 3p6 3d10 4s2 4p2
 
 Converged in 83 iterations to an ae energy of -45958.577 eV
 
   ============================================================                
   | Pseudopotential Report - Date of generation 16-11-2022   |                
   ------------------------------------------------------------                
   | Element: Ge Ionic charge: 23.00 Level of theory: PBE     |                
   | Atomic Solver: Koelling-Harmon                           |                
   |                                                          |                
   |               Reference Electronic Structure             |                
   |         Orbital         Occupation         Energy        |                
   |            3s              2.000           -7.194        |                
   |            3p              6.000           -5.260        |                
   |            3d             10.000           -1.873        |                
   |            4s              2.000           -0.846        |                
   |            4p              2.000           -0.492        |                
   |                                                          |                
   |                 Pseudopotential Definition               |                
   |        Beta     l      e      Rc     scheme   norm       |                
   |          1      0   -7.194   1.506     qc      0         |                
   |          2      0   -0.846   1.506     qc      0         |                
   |          3      0    0.250   1.506     qc      0         |                
   |          4      1   -5.260   1.506     qc      0         |                
   |          5      1   -0.492   1.506     qc      0         |                
   |          6      1    0.250   1.506     qc      0         |                
   |          7      2   -1.873   1.506     qc      0         |                
   |          8      2    0.250   1.506     qc      0         |                
   |         loc     3    0.000   1.506     pn      0         |                
   |                                                          |                
   | Augmentation charge Rinner = 1.052                       |                
   | Partial core correction Rc = 1.052                       |                
   ------------------------------------------------------------                
   | "3|1.5|13|15|17|30U:31U:32:40:41(qc=6){1s1}"             |                
   ------------------------------------------------------------                
   |      Author: Chris J. Pickard, Cambridge University      |                
   ============================================================                
 
 Pseudo atomic calculation performed for Na 2s2 2p6 3s1
 
 Converged in 14 iterations to a total energy of -937.2664 eV
 
 Pseudo atomic calculation performed for Ge:exc 3s2 3p6 3d10 4s2 4p2
 
 Converged in 17 iterations to a total energy of -9005.1869 eV
 Calculation parallelised over 4 processes.
 Data is distributed by k-point(4-way)

 ************************************ Title ************************************
 

 ***************************** General Parameters ******************************
  
 output verbosity                               : normal  (1)
 write checkpoint data to                       : NaGe.check
 type of calculation                            : Electronic Spectroscopy
 stress calculation                             : off
 density difference calculation                 : off
 electron localisation func (ELF) calculation   : off
 Hirshfeld analysis                             : off
 molecular orbital projected DOS                : off
 deltaSCF calculation                           : off
 unlimited duration calculation
 timing information                             : on
 memory usage estimate                          : on
 write extra output files                       : on
 write final potential to formatted file        : off
 write final density to formatted file          : off
 write BibTeX reference list                    : on
 write OTFG pseudopotential files               : on
 write electrostatic potential file             : on
 write bands file                               : on
 checkpoint writing                             : off
  
 output         length unit                     : A
 output           mass unit                     : amu
 output           time unit                     : ps
 output         charge unit                     : e
 output           spin unit                     : hbar/2
 output         energy unit                     : eV
 output          force unit                     : eV/A
 output       velocity unit                     : A/ps
 output       pressure unit                     : GPa
 output     inv_length unit                     : 1/A
 output      frequency unit                     : cm-1
 output force constant unit                     : eV/A**2
 output         volume unit                     : A**3
 output   IR intensity unit                     : (D/A)**2/amu
 output         dipole unit                     : D
 output         efield unit                     : eV/A/e
 output        entropy unit                     : J/mol/K
 output    efield chi2 unit                     : pm/V
  
 wavefunctions paging                           : none
 random number generator seed                   : randomised (132958821)
 data distribution                              : optimal for this architecture
 optimization strategy                          : balance speed and memory

 *********************** Exchange-Correlation Parameters ***********************
  
 using functional                               : Perdew Burke Ernzerhof
 relativistic treatment                         : Koelling-Harmon
 DFT+D: Semi-empirical dispersion correction    : off

 ************************* Pseudopotential Parameters **************************
  
 pseudopotential representation                 : reciprocal space
 <beta|phi> representation                      : reciprocal space
 spin-orbit coupling                            : off

 **************************** Basis Set Parameters *****************************
  
 plane wave basis set cut-off                   :   250.0000   eV
 size of standard grid                          :     1.7500
 size of   fine   gmax                          :    14.1758   1/A
 finite basis set correction                    : none

 **************************** Electronic Parameters ****************************
  
 number of  electrons                           :  58.00    
 net charge of system                           : +1.000    
 treating system as non-spin-polarized
 number of bands                                :         35

 ********************* Electronic Minimization Parameters **********************
  
 Method: Treating system as metallic with density mixing treatment of electrons,
         and number of  SD  steps               :          1
         and number of  CG  steps               :          4
  
 total energy / atom convergence tol.           : 0.1000E-04   eV
 eigen-energy convergence tolerance             : 0.1000E-05   eV
 max force / atom convergence tol.              : ignored
 convergence tolerance window                   :          3   cycles
 max. number of SCF cycles                      :         30
 number of fixed-spin iterations                :         10
 smearing scheme                                : Gaussian
 smearing width                                 : 0.2000       eV
 Fermi energy convergence tolerance             : 0.2721E-13   eV
 periodic dipole correction                     : NONE

 ************************** Density Mixing Parameters **************************
  
 density-mixing scheme                          : Broyden
 max. length of mixing history                  :         20
 charge density mixing amplitude                : 0.8000    
 cut-off energy for mixing                      :  250.0       eV

 *********************** Population Analysis Parameters ************************
  
 Population analysis with cutoff                :  3.000       A
 Population analysis output                     : summary and pdos components

 ********************* Electronic Spectroscopy Parameters **********************
  
 electronic spectroscopy with theory level      : DFT       
 spectroscopy calculation                       : core loss (EELS, XANES, etc)
 max. number of iterations                      :         60
 max. steps per iteration                       :          5
 number of bands / k-point                      :         65
 band convergence tolerance                     : 0.1000E-05   eV
 write orbitals file                            : off

 *******************************************************************************
  
 
                           -------------------------------
                                      Unit Cell
                           -------------------------------
        Real Lattice(A)                      Reciprocal Lattice(1/A)
     5.1604656     0.0000000     0.0000000        1.217561701  -0.607908567   0.617623848
     2.5800873     5.1670571    -0.0005136        0.000000000   1.215885706  -1.235439463
     0.0002573     5.2137340     5.1312143        0.000000000   0.000121695   1.224378962
 
                       Lattice parameters(A)       Cell Angles
                    a =      5.160466          alpha =   50.386662
                    b =      5.775407          beta  =   89.997985
                    c =      7.315216          gamma =   63.465484
 
                       Current cell volume =           136.834672       A**3
                                   density =             1.202686   AMU/A**3
                                           =             1.997106     g/cm^3
 
                           -------------------------------
                                     Cell Contents
                           -------------------------------
                         Total number of ions in cell =    5
                      Total number of species in cell =    2
                        Max number of any one species =    4
 
            xxxxxxxxxxxxxxxxxxxxxxxxxxxxxxxxxxxxxxxxxxxxxxxxxxxxxxxxxxxx
            x  Element    Atom        Fractional coordinates of atoms  x
            x            Number           u          v          w      x
            x----------------------------------------------------------x
            x  Na           1         0.620574   0.758852   0.836258   x 
            x  Na           2         0.379426   0.241148   0.163742   x 
            x  Na           3         0.220454   0.559092   0.600727   x 
            x  Na           4         0.779546   0.440908   0.399273   x 
            x  Ge:exc       1         0.000000   0.000000   0.000000   x 
            xxxxxxxxxxxxxxxxxxxxxxxxxxxxxxxxxxxxxxxxxxxxxxxxxxxxxxxxxxxx
 
 
                         No user defined ionic velocities
 
                           -------------------------------
                                   Details of Species
                           -------------------------------
 
                               Mass of species in AMU
                                    Na   22.9897700
                                    Ge:exc   72.6100000
 
                          Electric Quadrupole Moment (Barn)
                                    Na    0.1040000 Isotope 23
                                    Ge:exc   -0.1730000 Isotope 73
 
                          Files used for pseudopotentials:
                                    Na 2|1.3|14|16|18|20U:30:21(qc=7)
                                    Ge:exc 3|1.5|13|15|17|30U:31U:32:40:41(qc=6){1s1}
 
                           -------------------------------
                              k-Points For BZ Sampling
                           -------------------------------
                       MP grid size for SCF calculation is  2  2  2
                            with an offset of   0.000  0.000  0.000
                       Number of kpoints used =             4
 
                           -------------------------------
                               Symmetry and Constraints
                           -------------------------------
 
                      Maximum deviation from symmetry =  0.00000         ANG
 
                      Number of symmetry operations   =           1
                      Number of ionic constraints     =           3
                      Point group of crystal =     1: C1, 1, 1
                      Space group of crystal =    12: C2/m, -C 2y
 
             Set iprint > 1 for details on symmetry rotations/translations
 
                         Centre of mass is constrained
             Set iprint > 1 for details of linear ionic constraints
 
                         Number of cell constraints= 0
                         Cell constraints are:  1 2 3 4 5 6
 
                         External pressure/stress (GPa)
                          0.00000   0.00000   0.00000
                                    0.00000   0.00000
                                              0.00000
  
+---------------- MEMORY AND SCRATCH DISK ESTIMATES PER PROCESS --------------+
|                                                     Memory          Disk    |
| Baseline code, static data and system overhead      380.0 MB         0.0 MB |
| BLAS internal memory storage                          0.0 MB         0.0 MB |
| Model and support data                              243.9 MB       109.1 MB |
| Electronic energy minimisation requirements           9.3 MB         0.0 MB |
| Force calculation requirements                        3.4 MB         0.0 MB |
|                                               ----------------------------- |
| Approx. total storage required per process          633.2 MB       109.1 MB |
|                                                                             |
| Requirements will fluctuate during execution and may exceed these estimates |
+-----------------------------------------------------------------------------+
Calculating total energy with cut-off of  250.000 eV.
------------------------------------------------------------------------ <-- SCF
SCF loop      Energy           Fermi           Energy gain       Timer   <-- SCF
                               energy          per atom          (sec)   <-- SCF
------------------------------------------------------------------------ <-- SCF
Initial  -1.23352933E+004  0.00000000E+000                        18.54  <-- SCF
      1  -1.27010380E+004  3.75749186E+000   7.31489327E+001      18.91  <-- SCF
      2  -1.28451206E+004  2.04602290E-001   2.88165371E+001      19.13  <-- SCF
      3  -1.28500294E+004  1.79852002E-001   9.81753927E-001      19.39  <-- SCF
      4  -1.28493466E+004  1.73949196E-001  -1.36561823E-001      19.71  <-- SCF
      5  -1.28476793E+004  6.96735713E-001  -3.33458662E-001      20.05  <-- SCF
      6  -1.28475597E+004  6.53281369E-001  -2.39242712E-002      20.40  <-- SCF
      7  -1.28475549E+004  6.28233199E-001  -9.50397690E-004      20.85  <-- SCF
      8  -1.28475563E+004  6.31320033E-001   2.73495589E-004      21.18  <-- SCF
      9  -1.28475564E+004  6.29316931E-001   1.94617963E-005      21.46  <-- SCF
     10  -1.28475564E+004  6.29102308E-001  -8.63003879E-007      21.69  <-- SCF
     11  -1.28475564E+004  6.28825204E-001   1.28196415E-006      21.95  <-- SCF
------------------------------------------------------------------------ <-- SCF
 
Final energy, E             =  -12847.47434910     eV
Final free energy (E-TS)    =  -12847.55640007     eV
(energies not corrected for finite basis set)
 
NB est. 0K energy (E-0.5TS)      =  -12847.51537458     eV
 
 
+---------------- MEMORY AND SCRATCH DISK ESTIMATES PER PROCESS --------------+
|                                                     Memory          Disk    |
|                                               ----------------------------- |
| Approx. total storage required per process          263.6 MB       109.1 MB |
|                                                                             |
| Requirements will fluctuate during execution and may exceed these estimates |
+-----------------------------------------------------------------------------+
 
  =====================================================================
  +                                                                   +
  +                 Calculation of Spectral Properties                +
  +                                                                   +
  + Calculation re-parallelised over 4 processes.                     +
  + Data distributed by G-vector(1-way), k-point(4-way), band(1-way)  +
  + Data distributed by k-point(4-way)                                +
  +                                                                   +
  =====================================================================
  Starting k-point:        1 of        1 on this process      |<-- SPEC
  Total time to compute matrix elements              3.24 sec |<-- SPEC
  
  + Calculation re-parallelised over 4 processes.                     +
  + Data distributed by k-point(4-way)                                +
 
 ************************** Forces **************************
 *                                                          *
 *               Cartesian components (eV/A)                *
 * -------------------------------------------------------- *
 *                         x            y            z      *
 *                                                          *
 * Na              1     -0.23953     -0.18397     -3.20122 *
 * Na              2      0.23957      0.18382      3.20140 *
 * Na              3     -0.38746      1.10391      1.28030 *
 * Na              4      0.38746     -1.10385     -1.28050 *
 * Ge:exc          1     -0.00004      0.00008      0.00003 *
 *                                                          *
 ************************************************************
 
 Pseudo atomic calculation performed for Na 2s2 2p6 3s1
 
 Converged in 14 iterations to a total energy of -937.2664 eV
 
 Pseudo atomic calculation performed for Ge:exc 3s2 3p6 3d10 4s2 4p2
 
 Converged in 17 iterations to a total energy of -9005.1869 eV
Charge spilling parameter for spin component 1 = 0.97%
 
            Orbital Populations       
     Ion    Atom   Orbital             Charge
  -------------------------------------------
     Na     1      S                    2.000
     Na     1      Px                   1.996
     Na     1      Py                   1.985
     Na     1      Pz                   2.003
     Na     1      S                    0.972
     Na     1      S                    0.086
     Na     2      S                    2.000
     Na     2      Px                   1.996
     Na     2      Py                   1.985
     Na     2      Pz                   2.002
     Na     2      S                    0.972
     Na     2      S                    0.085
     Na     3      S                    2.000
     Na     3      Px                   1.993
     Na     3      Py                   2.004
     Na     3      Pz                   1.984
     Na     3      S                    1.001
     Na     3      S                    0.076
     Na     4      S                    2.000
     Na     4      Px                   1.995
     Na     4      Py                   2.004
     Na     4      Pz                   1.983
     Na     4      S                    1.001
     Na     4      S                    0.076
  Ge:ex     1      S                    2.000
  Ge:ex     1      Px                   2.000
  Ge:ex     1      Py                   2.000
  Ge:ex     1      Pz                   2.000
  Ge:ex     1      Dzz                  2.000
  Ge:ex     1      Dzy                  2.000
  Ge:ex     1      Dzx                  2.000
  Ge:ex     1      Dxx-yy               2.000
  Ge:ex     1      Dxy                  2.000
  Ge:ex     1      S                    2.012
  Ge:ex     1      Px                   0.431
  Ge:ex     1      Py                   0.693
  Ge:ex     1      Pz                   0.663
  -------------------------------------------
                           Total:      58.000
  -------------------------------------------
 
     Atomic Populations (Mulliken)
     -----------------------------
Species          Ion     s      p      d      f     Total  Charge (e)
=====================================================================
  Na              1     3.06   5.98   0.00   0.00   9.04    -0.04
  Na              2     3.06   5.98   0.00   0.00   9.04    -0.04
  Na              3     3.08   5.98   0.00   0.00   9.06    -0.06
  Na              4     3.08   5.98   0.00   0.00   9.06    -0.06
  Ge:exc          1     4.01   7.79  10.00   0.00  21.80     1.20
=====================================================================
 
                 Bond                   Population      Length (A)
======================================================================
======================================================================
 
 
 A BibTeX formatted list of references used in this run has been written to 
 NaGe.bib
 
Initialisation time =     17.12 s
Calculation time    =      9.18 s
Finalisation time   =      0.04 s
Total time          =     26.35 s
Peak Memory Use     = 1134444 kB
  
Overall parallel efficiency rating: Poor (48%)                                  
  
Data was distributed by:-
k-point (4-way); efficiency rating: Poor (48%)                                  
  
Parallel notes:
1) Calculation only took 26.3 s, so efficiency estimates may be inaccurate.     
